
    -----------------------------------------------------------------------
          Psi4: An Open-Source Ab Initio Electronic Structure Package
                               Psi4 1.4rc3 

                         Git: Rev {HEAD} 080dba6 


    D. G. A. Smith, L. A. Burns, A. C. Simmonett, R. M. Parrish,
    M. C. Schieber, R. Galvelis, P. Kraus, H. Kruse, R. Di Remigio,
    A. Alenaizan, A. M. James, S. Lehtola, J. P. Misiewicz, M. Scheurer,
    R. A. Shaw, J. B. Schriber, Y. Xie, Z. L. Glick, D. A. Sirianni,
    J. S. O'Brien, J. M. Waldrop, A. Kumar, E. G. Hohenstein,
    B. P. Pritchard, B. R. Brooks, H. F. Schaefer III, A. Yu. Sokolov,
    K. Patkowski, A. E. DePrince III, U. Bozkaya, R. A. King,
    F. A. Evangelista, J. M. Turney, T. D. Crawford, C. D. Sherrill,
    J. Chem. Phys. 152(18) 184108 (2020). https://doi.org/10.1063/5.0006002

                            Additional Code Authors
    E. T. Seidl, C. L. Janssen, E. F. Valeev, M. L. Leininger,
    J. F. Gonthier, R. M. Richard, H. R. McAlexander, M. Saitow, X. Wang,
    P. Verma, and M. H. Lechner

             Previous Authors, Complete List of Code Contributors,
                       and Citations for Specific Modules
    https://github.com/psi4/psi4/blob/master/codemeta.json
    https://github.com/psi4/psi4/graphs/contributors
    http://psicode.org/psi4manual/master/introduction.html#citing-psifour

    -----------------------------------------------------------------------


    Psi4 started on: Wednesday, 01 September 2021 02:23PM

    Process ID: 21542
    Host:       ds1
    PSIDATADIR: /theoryfs2/ds/csargent/miniconda3/envs/cle/share/psi4
    Memory:     500.0 MiB
    Threads:    6
    
  ==> Input File <==

--------------------------------------------------------------------------
# PSI4 file produced by CrystaLattE

# Generated from:               acetic_acid.xyz
# Psithon input for N-mer:      2mer-0+613
# Number of atoms per monomer:  [8, 8]
# Number of replicas:           2
# COM priority:                 1.720931969871e-05
# Minimum COM separations:      20.497 
# Separation priority:          2.234541755740e-05
# Minimum monomer separations:  18.788 
# Cutoff priority:              6.293872865185e-07
# Nuclear repulsion energy:     269.87136823781873

memory 7 GB

molecule Dimer_0_613 {
  O           -5.53102237       2.93940290       1.97762624 
  O           -2.40708886       0.90817734       0.04905909 
  H           -0.50304887       1.37579205       4.63880908 
  H            0.00000000       4.25104285       3.09072238 
  H           -2.38948215       4.01916779       5.40195041 
  H           -3.74771411       0.47147930      -1.21557512 
  C           -1.41859782       2.98500500       3.84405190 
  C           -3.32263781       2.28628814       1.91221413 
--
  O          -17.96136005      35.86102460      -3.47338325 
  O          -21.08529356      37.89225017      -5.40195041 
  H          -22.98933354      37.42463545      -0.81220041 
  H          -23.49238242      34.54938465      -2.36028711 
  H          -21.10290027      34.78125972      -0.04905909 
  H          -19.74466831      38.32894821      -6.66658461 
  C          -22.07378459      35.81542250      -1.60695760 
  C          -20.16974460      36.51413937      -3.53879536 
units = au
no_com
no_reorient
}

set {
  e_convergence 10
  d_convergence 10
  scf_type df
  mp2_type df
  cc_type df
  freeze_core true
}

energy('sapt0/aug-cc-pvdz')

--------------------------------------------------------------------------

  Memory set to   6.519 GiB by Python driver.

Scratch directory: /scratch/csargent/psi4.17562.33784/

Scratch directory: /scratch/csargent/psi4.17562.33784/

  //>>>>>>>>>>>>>>>>>>>>>>>>>>>>>>>>>>>//
  //              Dimer HF             //
  //<<<<<<<<<<<<<<<<<<<<<<<<<<<<<<<<<<<//


*** tstart() called on ds1
*** at Wed Sep  1 14:23:43 2021

   => Loading Basis Set <=

    Name: AUG-CC-PVDZ
    Role: ORBITAL
    Keyword: BASIS
    atoms 1-2, 9-10  entry O          line   254 file /theoryfs2/ds/csargent/miniconda3/envs/cle/share/psi4/basis/aug-cc-pvdz.gbs 
    atoms 3-6, 11-14 entry H          line    40 file /theoryfs2/ds/csargent/miniconda3/envs/cle/share/psi4/basis/aug-cc-pvdz.gbs 
    atoms 7-8, 15-16 entry C          line   182 file /theoryfs2/ds/csargent/miniconda3/envs/cle/share/psi4/basis/aug-cc-pvdz.gbs 


         ---------------------------------------------------------
                                   SCF
               by Justin Turney, Rob Parrish, Andy Simmonett
                          and Daniel G. A. Smith
                              RHF Reference
                        6 Threads,   6675 MiB Core
         ---------------------------------------------------------

  ==> Geometry <==

    Molecular point group: c1
    Full point group: C1

    Geometry (in Bohr), charge = 0, multiplicity = 1:

       Center              X                  Y                   Z               Mass       
    ------------   -----------------  -----------------  -----------------  -----------------
         O           -5.531022370000     2.939402900000     1.977626240000    15.994914619570
         O           -2.407088860000     0.908177340000     0.049059090000    15.994914619570
         H           -0.503048870000     1.375792050000     4.638809080000     1.007825032230
         H            0.000000000000     4.251042850000     3.090722380000     1.007825032230
         H           -2.389482150000     4.019167790000     5.401950410000     1.007825032230
         H           -3.747714110000     0.471479300000    -1.215575120000     1.007825032230
         C           -1.418597820000     2.985005000000     3.844051900000    12.000000000000
         C           -3.322637810000     2.286288140000     1.912214130000    12.000000000000
         O          -17.961360050000    35.861024600000    -3.473383250000    15.994914619570
         O          -21.085293560000    37.892250170000    -5.401950410000    15.994914619570
         H          -22.989333540000    37.424635450000    -0.812200410000     1.007825032230
         H          -23.492382420000    34.549384650000    -2.360287110000     1.007825032230
         H          -21.102900270000    34.781259720000    -0.049059090000     1.007825032230
         H          -19.744668310000    38.328948210000    -6.666584610000     1.007825032230
         C          -22.073784590000    35.815422500000    -1.606957600000    12.000000000000
         C          -20.169744600000    36.514139370000    -3.538795360000    12.000000000000

  Running in c1 symmetry.

  Rotational constants: A =      0.06406  B =      0.00056  C =      0.00056 [cm^-1]
  Rotational constants: A =   1920.38676  B =     16.89554  C =     16.81997 [MHz]
  Nuclear repulsion =  269.871368278710406

  Charge       = 0
  Multiplicity = 1
  Electrons    = 64
  Nalpha       = 32
  Nbeta        = 32

  ==> Algorithm <==

  SCF Algorithm Type is DF.
  DIIS enabled.
  MOM disabled.
  Fractional occupation disabled.
  Guess Type is SAD.
  Energy threshold   = 1.00e-10
  Density threshold  = 1.00e-10
  Integral threshold = 1.00e-12

  ==> Primary Basis <==

  Basis Set: AUG-CC-PVDZ
    Blend: AUG-CC-PVDZ
    Number of shells: 112
    Number of basis functions: 256
    Number of Cartesian functions: 272
    Spherical Harmonics?: true
    Max angular momentum: 2

   => Loading Basis Set <=

    Name: (AUG-CC-PVDZ AUX)
    Role: JKFIT
    Keyword: DF_BASIS_SCF
    atoms 1-2, 9-10  entry O          line   270 file /theoryfs2/ds/csargent/miniconda3/envs/cle/share/psi4/basis/aug-cc-pvdz-jkfit.gbs 
    atoms 3-6, 11-14 entry H          line    70 file /theoryfs2/ds/csargent/miniconda3/envs/cle/share/psi4/basis/aug-cc-pvdz-jkfit.gbs 
    atoms 7-8, 15-16 entry C          line   154 file /theoryfs2/ds/csargent/miniconda3/envs/cle/share/psi4/basis/aug-cc-pvdz-jkfit.gbs 

  ==> Integral Setup <==

  ==> DiskDFJK: Density-Fitted J/K Matrices <==

    J tasked:                  Yes
    K tasked:                  Yes
    wK tasked:                  No
    OpenMP threads:              6
    Integrals threads:           6
    Memory [MiB]:             5006
    Algorithm:                Core
    Integral Cache:           SAVE
    Schwarz Cutoff:          1E-12
    Fitting Condition:       1E-10

   => Auxiliary Basis Set <=

  Basis Set: (AUG-CC-PVDZ AUX)
    Blend: AUG-CC-PVDZ-JKFIT
    Number of shells: 320
    Number of basis functions: 944
    Number of Cartesian functions: 1088
    Spherical Harmonics?: true
    Max angular momentum: 3

  Minimum eigenvalue in the overlap matrix is 1.0277546721E-04.
  Reciprocal condition number of the overlap matrix is 9.6539168203E-06.
    Using symmetric orthogonalization.

  ==> Pre-Iterations <==

  SCF Guess: Superposition of Atomic Densities via on-the-fly atomic UHF (no occupation information).

   -------------------------
    Irrep   Nso     Nmo    
   -------------------------
     A        256     256 
   -------------------------
    Total     256     256
   -------------------------

  ==> Iterations <==

                           Total Energy        Delta E     RMS |[F,P]|

   @DF-RHF iter SAD:  -453.97985886023963   -4.53980e+02   0.00000e+00 
   @DF-RHF iter   1:  -455.36180402703047   -1.38195e+00   3.22743e-03 DIIS
   @DF-RHF iter   2:  -455.60181232366477   -2.40008e-01   1.87362e-03 DIIS
   @DF-RHF iter   3:  -455.68263274171818   -8.08204e-02   3.30379e-04 DIIS
   @DF-RHF iter   4:  -455.68710632586993   -4.47358e-03   1.46164e-04 DIIS
   @DF-RHF iter   5:  -455.68806836217533   -9.62036e-04   3.42481e-05 DIIS
   @DF-RHF iter   6:  -455.68814271152166   -7.43493e-05   1.66593e-05 DIIS
   @DF-RHF iter   7:  -455.68816229048366   -1.95790e-05   5.43469e-06 DIIS
   @DF-RHF iter   8:  -455.68816545370902   -3.16323e-06   1.43655e-06 DIIS
   @DF-RHF iter   9:  -455.68816568702579   -2.33317e-07   3.01206e-07 DIIS
   @DF-RHF iter  10:  -455.68816569466935   -7.64356e-09   7.94396e-08 DIIS
   @DF-RHF iter  11:  -455.68816569507658   -4.07226e-10   2.54800e-08 DIIS
   @DF-RHF iter  12:  -455.68816569512103   -4.44516e-11   6.03168e-09 DIIS
   @DF-RHF iter  13:  -455.68816569512410   -3.06954e-12   1.26426e-09 DIIS
   @DF-RHF iter  14:  -455.68816569512404    5.68434e-14   4.08048e-10 DIIS
   @DF-RHF iter  15:  -455.68816569512410   -5.68434e-14   1.55349e-10 DIIS
   @DF-RHF iter  16:  -455.68816569512353    5.68434e-13   4.34670e-11 DIIS
  Energy and wave function converged.


  ==> Post-Iterations <==

    Orbital Energies [Eh]
    ---------------------

    Doubly Occupied:                                                      

       1A    -20.629045     2A    -20.629023     3A    -20.552346  
       4A    -20.552334     5A    -11.395650     6A    -11.395639  
       7A    -11.250501     8A    -11.250496     9A     -1.475413  
      10A     -1.475394    11A     -1.357034    12A     -1.357019  
      13A     -1.032526    14A     -1.032525    15A     -0.837485  
      16A     -0.837471    17A     -0.702615    18A     -0.702600  
      19A     -0.688007    20A     -0.687998    21A     -0.657295  
      22A     -0.657283    23A     -0.576085    24A     -0.576074  
      25A     -0.569232    26A     -0.569227    27A     -0.560925  
      28A     -0.560921    29A     -0.474891    30A     -0.474875  
      31A     -0.451974    32A     -0.451963  

    Virtual:                                                              

      33A      0.032641    34A      0.032659    35A      0.046049  
      36A      0.046063    37A      0.055556    38A      0.055568  
      39A      0.065144    40A      0.065205    41A      0.099235  
      42A      0.099238    43A      0.117763    44A      0.117778  
      45A      0.118309    46A      0.118335    47A      0.140995  
      48A      0.141001    49A      0.152427    50A      0.152432  
      51A      0.156848    52A      0.156859    53A      0.165081  
      54A      0.165083    55A      0.171777    56A      0.171782  
      57A      0.196762    58A      0.196767    59A      0.209648  
      60A      0.209675    61A      0.233816    62A      0.233842  
      63A      0.235417    64A      0.235419    65A      0.271328  
      66A      0.271335    67A      0.290752    68A      0.290766  
      69A      0.296266    70A      0.296272    71A      0.320261  
      72A      0.320281    73A      0.323237    74A      0.323260  
      75A      0.347747    76A      0.347750    77A      0.371114  
      78A      0.371121    79A      0.379334    80A      0.379339  
      81A      0.394583    82A      0.394586    83A      0.401895  
      84A      0.401906    85A      0.427151    86A      0.427158  
      87A      0.438677    88A      0.438677    89A      0.442486  
      90A      0.442489    91A      0.475994    92A      0.476010  
      93A      0.492826    94A      0.492832    95A      0.525236  
      96A      0.525239    97A      0.537744    98A      0.537747  
      99A      0.553951   100A      0.553954   101A      0.570215  
     102A      0.570225   103A      0.584267   104A      0.584270  
     105A      0.602539   106A      0.602555   107A      0.618691  
     108A      0.618694   109A      0.640767   110A      0.640776  
     111A      0.649773   112A      0.649776   113A      0.667162  
     114A      0.667169   115A      0.684682   116A      0.684684  
     117A      0.697661   118A      0.697667   119A      0.704044  
     120A      0.704048   121A      0.733750   122A      0.733756  
     123A      0.743217   124A      0.743224   125A      0.798939  
     126A      0.798943   127A      0.854037   128A      0.854046  
     129A      0.877285   130A      0.877299   131A      0.912861  
     132A      0.912872   133A      0.950153   134A      0.950166  
     135A      0.954833   136A      0.954843   137A      0.983599  
     138A      0.983609   139A      1.041995   140A      1.042010  
     141A      1.089300   142A      1.089300   143A      1.102314  
     144A      1.102316   145A      1.118837   146A      1.118837  
     147A      1.157962   148A      1.157980   149A      1.172587  
     150A      1.172602   151A      1.176818   152A      1.176826  
     153A      1.236474   154A      1.236490   155A      1.272639  
     156A      1.272654   157A      1.319689   158A      1.319702  
     159A      1.358641   160A      1.358651   161A      1.390907  
     162A      1.390914   163A      1.412922   164A      1.412926  
     165A      1.463241   166A      1.463258   167A      1.468415  
     168A      1.468434   169A      1.546488   170A      1.546488  
     171A      1.635504   172A      1.635517   173A      1.650370  
     174A      1.650380   175A      1.715559   176A      1.715569  
     177A      1.756265   178A      1.756271   179A      1.773359  
     180A      1.773361   181A      1.848502   182A      1.848513  
     183A      1.865972   184A      1.865974   185A      1.884288  
     186A      1.884292   187A      1.966903   188A      1.966916  
     189A      1.979908   190A      1.979920   191A      2.026766  
     192A      2.026769   193A      2.038098   194A      2.038109  
     195A      2.123304   196A      2.123315   197A      2.172507  
     198A      2.172515   199A      2.193601   200A      2.193607  
     201A      2.245247   202A      2.245249   203A      2.254105  
     204A      2.254112   205A      2.272817   206A      2.272826  
     207A      2.312704   208A      2.312711   209A      2.380073  
     210A      2.380076   211A      2.430780   212A      2.430792  
     213A      2.439132   214A      2.439135   215A      2.536770  
     216A      2.536774   217A      2.624046   218A      2.624054  
     219A      2.652785   220A      2.652788   221A      2.784154  
     222A      2.784154   223A      2.834110   224A      2.834115  
     225A      2.886596   226A      2.886598   227A      2.974747  
     228A      2.974758   229A      3.002063   230A      3.002067  
     231A      3.016777   232A      3.016784   233A      3.179386  
     234A      3.179400   235A      3.346580   236A      3.346593  
     237A      3.667139   238A      3.667161   239A      3.690857  
     240A      3.690879   241A      3.736883   242A      3.736901  
     243A      3.760118   244A      3.760132   245A      3.790773  
     246A      3.790789   247A      3.805705   248A      3.805720  
     249A      3.900860   250A      3.900878   251A      4.050819  
     252A      4.050834   253A      4.142791   254A      4.142807  
     255A      4.310386   256A      4.310407  

    Final Occupation by Irrep:
              A 
    DOCC [    32 ]

  @DF-RHF Final Energy:  -455.68816569512353

   => Energetics <=

    Nuclear Repulsion Energy =            269.8713682787104062
    One-Electron Energy =               -1158.2753410919863200
    Two-Electron Energy =                 432.7158071181523837
    Total Energy =                       -455.6881656951235300

Computation Completed


Properties will be evaluated at   0.000000,   0.000000,   0.000000 [a0]

Properties computed using the SCF density matrix

  Nuclear Dipole Moment: [e a0]
     X:  -751.7562      Y:  1241.6137      Z:   -49.0983

  Electronic Dipole Moment: [e a0]
     X:   751.7562      Y: -1241.6137      Z:    48.9321

  Dipole Moment: [e a0]
     X:    -0.0000      Y:    -0.0000      Z:    -0.1662     Total:     0.1662

  Dipole Moment: [D]
     X:    -0.0000      Y:    -0.0001      Z:    -0.4225     Total:     0.4225


*** tstop() called on ds1 at Wed Sep  1 14:23:46 2021
Module time:
	user time   =      14.31 seconds =       0.24 minutes
	system time =       0.39 seconds =       0.01 minutes
	total time  =          3 seconds =       0.05 minutes
Total time:
	user time   =      14.31 seconds =       0.24 minutes
	system time =       0.39 seconds =       0.01 minutes
	total time  =          3 seconds =       0.05 minutes

  //>>>>>>>>>>>>>>>>>>>>>>>>>>>>>>>>>>>//
  //            Monomer A HF           //
  //<<<<<<<<<<<<<<<<<<<<<<<<<<<<<<<<<<<//


*** tstart() called on ds1
*** at Wed Sep  1 14:23:46 2021

   => Loading Basis Set <=

    Name: AUG-CC-PVDZ
    Role: ORBITAL
    Keyword: BASIS
    atoms 1-2, 9-10  entry O          line   254 file /theoryfs2/ds/csargent/miniconda3/envs/cle/share/psi4/basis/aug-cc-pvdz.gbs 
    atoms 3-6, 11-14 entry H          line    40 file /theoryfs2/ds/csargent/miniconda3/envs/cle/share/psi4/basis/aug-cc-pvdz.gbs 
    atoms 7-8, 15-16 entry C          line   182 file /theoryfs2/ds/csargent/miniconda3/envs/cle/share/psi4/basis/aug-cc-pvdz.gbs 


         ---------------------------------------------------------
                                   SCF
               by Justin Turney, Rob Parrish, Andy Simmonett
                          and Daniel G. A. Smith
                              RHF Reference
                        6 Threads,   6675 MiB Core
         ---------------------------------------------------------

  ==> Geometry <==

    Molecular point group: c1
    Full point group: C1

    Geometry (in Bohr), charge = 0, multiplicity = 1:

       Center              X                  Y                   Z               Mass       
    ------------   -----------------  -----------------  -----------------  -----------------
         O           -5.531022370000     2.939402900000     1.977626240000    15.994914619570
         O           -2.407088860000     0.908177340000     0.049059090000    15.994914619570
         H           -0.503048870000     1.375792050000     4.638809080000     1.007825032230
         H            0.000000000000     4.251042850000     3.090722380000     1.007825032230
         H           -2.389482150000     4.019167790000     5.401950410000     1.007825032230
         H           -3.747714110000     0.471479300000    -1.215575120000     1.007825032230
         C           -1.418597820000     2.985005000000     3.844051900000    12.000000000000
         C           -3.322637810000     2.286288140000     1.912214130000    12.000000000000
      Gh(O)         -17.961360050000    35.861024600000    -3.473383250000    15.994914619570
      Gh(O)         -21.085293560000    37.892250170000    -5.401950410000    15.994914619570
      Gh(H)         -22.989333540000    37.424635450000    -0.812200410000     1.007825032230
      Gh(H)         -23.492382420000    34.549384650000    -2.360287110000     1.007825032230
      Gh(H)         -21.102900270000    34.781259720000    -0.049059090000     1.007825032230
      Gh(H)         -19.744668310000    38.328948210000    -6.666584610000     1.007825032230
      Gh(C)         -22.073784590000    35.815422500000    -1.606957600000    12.000000000000
      Gh(C)         -20.169744600000    36.514139370000    -3.538795360000    12.000000000000

  Running in c1 symmetry.

  Rotational constants: A =      0.06406  B =      0.00056  C =      0.00056 [cm^-1]
  Rotational constants: A =   1920.38676  B =     16.89554  C =     16.81997 [MHz]
  Nuclear repulsion =  121.748430210971620

  Charge       = 0
  Multiplicity = 1
  Electrons    = 32
  Nalpha       = 16
  Nbeta        = 16

  ==> Algorithm <==

  SCF Algorithm Type is DF.
  DIIS enabled.
  MOM disabled.
  Fractional occupation disabled.
  Guess Type is SAD.
  Energy threshold   = 1.00e-10
  Density threshold  = 1.00e-10
  Integral threshold = 1.00e-12

  ==> Primary Basis <==

  Basis Set: AUG-CC-PVDZ
    Blend: AUG-CC-PVDZ
    Number of shells: 112
    Number of basis functions: 256
    Number of Cartesian functions: 272
    Spherical Harmonics?: true
    Max angular momentum: 2

   => Loading Basis Set <=

    Name: (AUG-CC-PVDZ AUX)
    Role: JKFIT
    Keyword: DF_BASIS_SCF
    atoms 1-2, 9-10  entry O          line   270 file /theoryfs2/ds/csargent/miniconda3/envs/cle/share/psi4/basis/aug-cc-pvdz-jkfit.gbs 
    atoms 3-6, 11-14 entry H          line    70 file /theoryfs2/ds/csargent/miniconda3/envs/cle/share/psi4/basis/aug-cc-pvdz-jkfit.gbs 
    atoms 7-8, 15-16 entry C          line   154 file /theoryfs2/ds/csargent/miniconda3/envs/cle/share/psi4/basis/aug-cc-pvdz-jkfit.gbs 

  ==> Integral Setup <==

  ==> DiskDFJK: Density-Fitted J/K Matrices <==

    J tasked:                  Yes
    K tasked:                  Yes
    wK tasked:                  No
    OpenMP threads:              6
    Integrals threads:           6
    Memory [MiB]:             5006
    Algorithm:                Core
    Integral Cache:           LOAD
    Schwarz Cutoff:          1E-12
    Fitting Condition:       1E-10

   => Auxiliary Basis Set <=

  Basis Set: (AUG-CC-PVDZ AUX)
    Blend: AUG-CC-PVDZ-JKFIT
    Number of shells: 320
    Number of basis functions: 944
    Number of Cartesian functions: 1088
    Spherical Harmonics?: true
    Max angular momentum: 3

  Minimum eigenvalue in the overlap matrix is 1.0277546721E-04.
  Reciprocal condition number of the overlap matrix is 9.6539168203E-06.
    Using symmetric orthogonalization.

  ==> Pre-Iterations <==

  SCF Guess: Superposition of Atomic Densities via on-the-fly atomic UHF (no occupation information).

   -------------------------
    Irrep   Nso     Nmo    
   -------------------------
     A        256     256 
   -------------------------
    Total     256     256
   -------------------------

  ==> Iterations <==

                           Total Energy        Delta E     RMS |[F,P]|

   @DF-RHF iter SAD:  -226.98992942854994   -2.26990e+02   0.00000e+00 
   @DF-RHF iter   1:  -227.68091168027539   -6.90982e-01   2.28211e-03 DIIS
   @DF-RHF iter   2:  -227.80091445336123   -1.20003e-01   1.32478e-03 DIIS
   @DF-RHF iter   3:  -227.84131987259212   -4.04054e-02   2.33581e-04 DIIS
   @DF-RHF iter   4:  -227.84355633612887   -2.23646e-03   1.03339e-04 DIIS
   @DF-RHF iter   5:  -227.84403723713200   -4.80901e-04   2.42136e-05 DIIS
   @DF-RHF iter   6:  -227.84407440512894   -3.71680e-05   1.17797e-05 DIIS
   @DF-RHF iter   7:  -227.84408419325484   -9.78813e-06   3.84272e-06 DIIS
   @DF-RHF iter   8:  -227.84408577484152   -1.58159e-06   1.01577e-06 DIIS
   @DF-RHF iter   9:  -227.84408589149191   -1.16650e-07   2.12953e-07 DIIS
   @DF-RHF iter  10:  -227.84408589531250   -3.82059e-09   5.61608e-08 DIIS
   @DF-RHF iter  11:  -227.84408589551600   -2.03499e-10   1.80147e-08 DIIS
   @DF-RHF iter  12:  -227.84408589553777   -2.17710e-11   4.26466e-09 DIIS
   @DF-RHF iter  13:  -227.84408589553971   -1.93268e-12   8.93569e-10 DIIS
   @DF-RHF iter  14:  -227.84408589553954    1.70530e-13   2.86711e-10 DIIS
   @DF-RHF iter  15:  -227.84408589553942    1.13687e-13   1.08058e-10 DIIS
   @DF-RHF iter  16:  -227.84408589553976   -3.41061e-13   2.86096e-11 DIIS
  Energy and wave function converged.


  ==> Post-Iterations <==

    Orbital Energies [Eh]
    ---------------------

    Doubly Occupied:                                                      

       1A    -20.629476     2A    -20.552804     3A    -11.396108  
       4A    -11.250979     5A     -1.475853     6A     -1.357486  
       7A     -1.032999     8A     -0.837930     9A     -0.703065  
      10A     -0.688465    11A     -0.657749    12A     -0.576538  
      13A     -0.569697    14A     -0.561403    15A     -0.475343  
      16A     -0.452434  

    Virtual:                                                              

      17A      0.025229    18A      0.032214    19A      0.045627  
      20A      0.047277    21A      0.055084    22A      0.056000  
      23A      0.057025    24A      0.064645    25A      0.085865  
      26A      0.098769    27A      0.105032    28A      0.112652  
      29A      0.117323    30A      0.117857    31A      0.117869  
      32A      0.140545    33A      0.140874    34A      0.141839  
      35A      0.147342    36A      0.151976    37A      0.156356  
      38A      0.164577    39A      0.171320    40A      0.176821  
      41A      0.196303    42A      0.206060    43A      0.209237  
      44A      0.215039    45A      0.226726    46A      0.233376  
      47A      0.234963    48A      0.244519    49A      0.260726  
      50A      0.265260    51A      0.270849    52A      0.277149  
      53A      0.285901    54A      0.290295    55A      0.295802  
      56A      0.319834    57A      0.322781    58A      0.332780  
      59A      0.336701    60A      0.347275    61A      0.369952  
      62A      0.370652    63A      0.378870    64A      0.394119  
      65A      0.399789    66A      0.401429    67A      0.410265  
      68A      0.426690    69A      0.431618    70A      0.438218  
      71A      0.438399    72A      0.442006    73A      0.460876  
      74A      0.475555    75A      0.490689    76A      0.492357  
      77A      0.497758    78A      0.516988    79A      0.524763  
      80A      0.537262    81A      0.542196    82A      0.544064  
      83A      0.553487    84A      0.560114    85A      0.569740  
      86A      0.583791    87A      0.587287    88A      0.602101  
      89A      0.616781    90A      0.618231    91A      0.636721  
      92A      0.637548    93A      0.640311    94A      0.649301  
      95A      0.666705    96A      0.675605    97A      0.684210  
      98A      0.690437    99A      0.697190   100A      0.701310  
     101A      0.703571   102A      0.728613   103A      0.733289  
     104A      0.742748   105A      0.754126   106A      0.760813  
     107A      0.787630   108A      0.798460   109A      0.816269  
     110A      0.820601   111A      0.848717   112A      0.853581  
     113A      0.876833   114A      0.888696   115A      0.896876  
     116A      0.912403   117A      0.948100   118A      0.949697  
     119A      0.954375   120A      0.958593   121A      0.976383  
     122A      0.983144   123A      1.038437   124A      1.041547  
     125A      1.045659   126A      1.088819   127A      1.101839  
     128A      1.106885   129A      1.118367   130A      1.157520  
     131A      1.163029   132A      1.172141   133A      1.176359  
     134A      1.191333   135A      1.236033   136A      1.261100  
     137A      1.270695   138A      1.272187   139A      1.319230  
     140A      1.330028   141A      1.358181   142A      1.384555  
     143A      1.390440   144A      1.396701   145A      1.412451  
     146A      1.435140   147A      1.458794   148A      1.462795  
     149A      1.467976   150A      1.468100   151A      1.469975  
     152A      1.538001   153A      1.546014   154A      1.569756  
     155A      1.635048   156A      1.649915   157A      1.684166  
     158A      1.715101   159A      1.717944   160A      1.755800  
     161A      1.772884   162A      1.800445   163A      1.848039  
     164A      1.865503   165A      1.883398   166A      1.883811  
     167A      1.937535   168A      1.966454   169A      1.979453  
     170A      2.026298   171A      2.037642   172A      2.071288  
     173A      2.122848   174A      2.172049   175A      2.193137  
     176A      2.244771   177A      2.251433   178A      2.253643  
     179A      2.265466   180A      2.272354   181A      2.274429  
     182A      2.303509   183A      2.312246   184A      2.337143  
     185A      2.339636   186A      2.362643   187A      2.377043  
     188A      2.379604   189A      2.430330   190A      2.438663  
     191A      2.467655   192A      2.506320   193A      2.536303  
     194A      2.586501   195A      2.623585   196A      2.652307  
     197A      2.665198   198A      2.698854   199A      2.754892  
     200A      2.783681   201A      2.786741   202A      2.824770  
     203A      2.833647   204A      2.886121   205A      2.916514  
     206A      2.974291   207A      3.001602   208A      3.016316  
     209A      3.043264   210A      3.178935   211A      3.183000  
     212A      3.279167   213A      3.311273   214A      3.346124  
     215A      3.357459   216A      3.432078   217A      3.487301  
     218A      3.663364   219A      3.666705   220A      3.690423  
     221A      3.736441   222A      3.740647   223A      3.759662  
     224A      3.790324   225A      3.805251   226A      3.900417  
     227A      4.026711   228A      4.050368   229A      4.142340  
     230A      4.154236   231A      4.309953   232A      4.505561  
     233A      4.617487   234A      4.725550   235A      4.926530  
     236A      4.970373   237A      4.978602   238A      5.002300  
     239A      5.017470   240A      5.034336   241A      5.053126  
     242A      5.222639   243A      5.244832   244A      5.615810  
     245A      5.661828   246A      5.791942   247A      5.869681  
     248A      6.053435   249A      6.229503   250A      6.521389  
     251A      6.790889   252A      7.093599   253A     18.346900  
     254A     18.941399   255A     33.526193   256A     33.564182  

    Final Occupation by Irrep:
              A 
    DOCC [    16 ]

  @DF-RHF Final Energy:  -227.84408589553976

   => Energetics <=

    Nuclear Repulsion Energy =            121.7484302109716197
    One-Electron Energy =                -552.7483714412605877
    Two-Electron Energy =                 203.1558553347492193
    Total Energy =                       -227.8440858955397630

Computation Completed


Properties will be evaluated at   0.000000,   0.000000,   0.000000 [a0]

Properties computed using the SCF density matrix

  Nuclear Dipole Moment: [e a0]
     X:   -98.5925      Y:    72.5259      Z:    62.6670

  Electronic Dipole Moment: [e a0]
     X:    99.4206      Y:   -72.8088      Z:   -62.7502

  Dipole Moment: [e a0]
     X:     0.8281      Y:    -0.2829      Z:    -0.0832     Total:     0.8790

  Dipole Moment: [D]
     X:     2.1048      Y:    -0.7191      Z:    -0.2116     Total:     2.2342


*** tstop() called on ds1 at Wed Sep  1 14:23:49 2021
Module time:
	user time   =      10.36 seconds =       0.17 minutes
	system time =       0.18 seconds =       0.00 minutes
	total time  =          3 seconds =       0.05 minutes
Total time:
	user time   =      24.87 seconds =       0.41 minutes
	system time =       0.58 seconds =       0.01 minutes
	total time  =          6 seconds =       0.10 minutes

  //>>>>>>>>>>>>>>>>>>>>>>>>>>>>>>>>>>>//
  //            Monomer B HF           //
  //<<<<<<<<<<<<<<<<<<<<<<<<<<<<<<<<<<<//


*** tstart() called on ds1
*** at Wed Sep  1 14:23:49 2021

   => Loading Basis Set <=

    Name: AUG-CC-PVDZ
    Role: ORBITAL
    Keyword: BASIS
    atoms 1-2, 9-10  entry O          line   254 file /theoryfs2/ds/csargent/miniconda3/envs/cle/share/psi4/basis/aug-cc-pvdz.gbs 
    atoms 3-6, 11-14 entry H          line    40 file /theoryfs2/ds/csargent/miniconda3/envs/cle/share/psi4/basis/aug-cc-pvdz.gbs 
    atoms 7-8, 15-16 entry C          line   182 file /theoryfs2/ds/csargent/miniconda3/envs/cle/share/psi4/basis/aug-cc-pvdz.gbs 


         ---------------------------------------------------------
                                   SCF
               by Justin Turney, Rob Parrish, Andy Simmonett
                          and Daniel G. A. Smith
                              RHF Reference
                        6 Threads,   6675 MiB Core
         ---------------------------------------------------------

  ==> Geometry <==

    Molecular point group: c1
    Full point group: C1

    Geometry (in Bohr), charge = 0, multiplicity = 1:

       Center              X                  Y                   Z               Mass       
    ------------   -----------------  -----------------  -----------------  -----------------
      Gh(O)          -5.531022370000     2.939402900000     1.977626240000    15.994914619570
      Gh(O)          -2.407088860000     0.908177340000     0.049059090000    15.994914619570
      Gh(H)          -0.503048870000     1.375792050000     4.638809080000     1.007825032230
      Gh(H)           0.000000000000     4.251042850000     3.090722380000     1.007825032230
      Gh(H)          -2.389482150000     4.019167790000     5.401950410000     1.007825032230
      Gh(H)          -3.747714110000     0.471479300000    -1.215575120000     1.007825032230
      Gh(C)          -1.418597820000     2.985005000000     3.844051900000    12.000000000000
      Gh(C)          -3.322637810000     2.286288140000     1.912214130000    12.000000000000
         O          -17.961360050000    35.861024600000    -3.473383250000    15.994914619570
         O          -21.085293560000    37.892250170000    -5.401950410000    15.994914619570
         H          -22.989333540000    37.424635450000    -0.812200410000     1.007825032230
         H          -23.492382420000    34.549384650000    -2.360287110000     1.007825032230
         H          -21.102900270000    34.781259720000    -0.049059090000     1.007825032230
         H          -19.744668310000    38.328948210000    -6.666584610000     1.007825032230
         C          -22.073784590000    35.815422500000    -1.606957600000    12.000000000000
         C          -20.169744600000    36.514139370000    -3.538795360000    12.000000000000

  Running in c1 symmetry.

  Rotational constants: A =      0.06406  B =      0.00056  C =      0.00056 [cm^-1]
  Rotational constants: A =   1920.38676  B =     16.89554  C =     16.81997 [MHz]
  Nuclear repulsion =  121.748430213434801

  Charge       = 0
  Multiplicity = 1
  Electrons    = 32
  Nalpha       = 16
  Nbeta        = 16

  ==> Algorithm <==

  SCF Algorithm Type is DF.
  DIIS enabled.
  MOM disabled.
  Fractional occupation disabled.
  Guess Type is SAD.
  Energy threshold   = 1.00e-10
  Density threshold  = 1.00e-10
  Integral threshold = 1.00e-12

  ==> Primary Basis <==

  Basis Set: AUG-CC-PVDZ
    Blend: AUG-CC-PVDZ
    Number of shells: 112
    Number of basis functions: 256
    Number of Cartesian functions: 272
    Spherical Harmonics?: true
    Max angular momentum: 2

   => Loading Basis Set <=

    Name: (AUG-CC-PVDZ AUX)
    Role: JKFIT
    Keyword: DF_BASIS_SCF
    atoms 1-2, 9-10  entry O          line   270 file /theoryfs2/ds/csargent/miniconda3/envs/cle/share/psi4/basis/aug-cc-pvdz-jkfit.gbs 
    atoms 3-6, 11-14 entry H          line    70 file /theoryfs2/ds/csargent/miniconda3/envs/cle/share/psi4/basis/aug-cc-pvdz-jkfit.gbs 
    atoms 7-8, 15-16 entry C          line   154 file /theoryfs2/ds/csargent/miniconda3/envs/cle/share/psi4/basis/aug-cc-pvdz-jkfit.gbs 

  ==> Integral Setup <==

  ==> DiskDFJK: Density-Fitted J/K Matrices <==

    J tasked:                  Yes
    K tasked:                  Yes
    wK tasked:                  No
    OpenMP threads:              6
    Integrals threads:           6
    Memory [MiB]:             5006
    Algorithm:                Core
    Integral Cache:           LOAD
    Schwarz Cutoff:          1E-12
    Fitting Condition:       1E-10

   => Auxiliary Basis Set <=

  Basis Set: (AUG-CC-PVDZ AUX)
    Blend: AUG-CC-PVDZ-JKFIT
    Number of shells: 320
    Number of basis functions: 944
    Number of Cartesian functions: 1088
    Spherical Harmonics?: true
    Max angular momentum: 3

  Minimum eigenvalue in the overlap matrix is 1.0277546721E-04.
  Reciprocal condition number of the overlap matrix is 9.6539168203E-06.
    Using symmetric orthogonalization.

  ==> Pre-Iterations <==

  SCF Guess: Superposition of Atomic Densities via on-the-fly atomic UHF (no occupation information).

   -------------------------
    Irrep   Nso     Nmo    
   -------------------------
     A        256     256 
   -------------------------
    Total     256     256
   -------------------------

  ==> Iterations <==

                           Total Energy        Delta E     RMS |[F,P]|

   @DF-RHF iter SAD:  -226.98992943105523   -2.26990e+02   0.00000e+00 
   @DF-RHF iter   1:  -227.68091168151977   -6.90982e-01   2.28211e-03 DIIS
   @DF-RHF iter   2:  -227.80091445470273   -1.20003e-01   1.32478e-03 DIIS
   @DF-RHF iter   3:  -227.84131987359095   -4.04054e-02   2.33581e-04 DIIS
   @DF-RHF iter   4:  -227.84355633710666   -2.23646e-03   1.03339e-04 DIIS
   @DF-RHF iter   5:  -227.84403723810533   -4.80901e-04   2.42136e-05 DIIS
   @DF-RHF iter   6:  -227.84407440610252   -3.71680e-05   1.17797e-05 DIIS
   @DF-RHF iter   7:  -227.84408419422812   -9.78813e-06   3.84272e-06 DIIS
   @DF-RHF iter   8:  -227.84408577581507   -1.58159e-06   1.01577e-06 DIIS
   @DF-RHF iter   9:  -227.84408589246527   -1.16650e-07   2.12953e-07 DIIS
   @DF-RHF iter  10:  -227.84408589628578   -3.82050e-09   5.61608e-08 DIIS
   @DF-RHF iter  11:  -227.84408589648973   -2.03954e-10   1.80147e-08 DIIS
   @DF-RHF iter  12:  -227.84408589651170   -2.19700e-11   4.26466e-09 DIIS
   @DF-RHF iter  13:  -227.84408589651304   -1.33582e-12   8.93569e-10 DIIS
   @DF-RHF iter  14:  -227.84408589651304    0.00000e+00   2.86710e-10 DIIS
   @DF-RHF iter  15:  -227.84408589651301    2.84217e-14   1.08058e-10 DIIS
   @DF-RHF iter  16:  -227.84408589651301    0.00000e+00   2.86096e-11 DIIS
  Energy and wave function converged.


  ==> Post-Iterations <==

    Orbital Energies [Eh]
    ---------------------

    Doubly Occupied:                                                      

       1A    -20.629476     2A    -20.552804     3A    -11.396108  
       4A    -11.250979     5A     -1.475853     6A     -1.357486  
       7A     -1.032999     8A     -0.837930     9A     -0.703065  
      10A     -0.688465    11A     -0.657749    12A     -0.576538  
      13A     -0.569697    14A     -0.561403    15A     -0.475343  
      16A     -0.452434  

    Virtual:                                                              

      17A      0.025235    18A      0.032214    19A      0.045627  
      20A      0.047284    21A      0.055084    22A      0.056011  
      23A      0.057008    24A      0.064645    25A      0.085863  
      26A      0.098769    27A      0.105051    28A      0.112671  
      29A      0.117323    30A      0.117847    31A      0.117857  
      32A      0.140545    33A      0.140868    34A      0.141841  
      35A      0.147333    36A      0.151976    37A      0.156356  
      38A      0.164577    39A      0.171320    40A      0.176830  
      41A      0.196303    42A      0.206088    43A      0.209237  
      44A      0.215057    45A      0.226744    46A      0.233376  
      47A      0.234963    48A      0.244534    49A      0.260752  
      50A      0.265283    51A      0.270849    52A      0.277161  
      53A      0.285916    54A      0.290295    55A      0.295802  
      56A      0.319834    57A      0.322781    58A      0.332775  
      59A      0.336695    60A      0.347275    61A      0.369939  
      62A      0.370652    63A      0.378870    64A      0.394119  
      65A      0.399781    66A      0.401429    67A      0.410262  
      68A      0.426690    69A      0.431617    70A      0.438218  
      71A      0.438401    72A      0.442006    73A      0.460903  
      74A      0.475555    75A      0.490703    76A      0.492357  
      77A      0.497774    78A      0.516995    79A      0.524763  
      80A      0.537262    81A      0.542218    82A      0.544057  
      83A      0.553487    84A      0.560118    85A      0.569740  
      86A      0.583791    87A      0.587291    88A      0.602101  
      89A      0.616796    90A      0.618231    91A      0.636723  
      92A      0.637560    93A      0.640311    94A      0.649301  
      95A      0.666705    96A      0.675618    97A      0.684210  
      98A      0.690435    99A      0.697190   100A      0.701310  
     101A      0.703571   102A      0.728606   103A      0.733289  
     104A      0.742748   105A      0.754126   106A      0.760803  
     107A      0.787636   108A      0.798460   109A      0.816266  
     110A      0.820595   111A      0.848716   112A      0.853581  
     113A      0.876833   114A      0.888692   115A      0.896884  
     116A      0.912403   117A      0.948103   118A      0.949697  
     119A      0.954375   120A      0.958599   121A      0.976391  
     122A      0.983144   123A      1.038449   124A      1.041547  
     125A      1.045675   126A      1.088819   127A      1.101839  
     128A      1.106894   129A      1.118367   130A      1.157520  
     131A      1.163048   132A      1.172141   133A      1.176359  
     134A      1.191352   135A      1.236033   136A      1.261121  
     137A      1.270717   138A      1.272187   139A      1.319230  
     140A      1.330047   141A      1.358181   142A      1.384575  
     143A      1.390440   144A      1.396724   145A      1.412451  
     146A      1.435153   147A      1.458822   148A      1.462795  
     149A      1.467976   150A      1.468121   151A      1.469996  
     152A      1.538020   153A      1.546014   154A      1.569777  
     155A      1.635048   156A      1.649915   157A      1.684183  
     158A      1.715101   159A      1.717960   160A      1.755800  
     161A      1.772884   162A      1.800463   163A      1.848039  
     164A      1.865503   165A      1.883386   166A      1.883811  
     167A      1.937532   168A      1.966454   169A      1.979453  
     170A      2.026298   171A      2.037642   172A      2.071284  
     173A      2.122848   174A      2.172049   175A      2.193137  
     176A      2.244771   177A      2.251420   178A      2.253643  
     179A      2.265459   180A      2.272354   181A      2.274448  
     182A      2.303505   183A      2.312246   184A      2.337132  
     185A      2.339628   186A      2.362647   187A      2.377053  
     188A      2.379604   189A      2.430330   190A      2.438663  
     191A      2.467667   192A      2.506345   193A      2.536303  
     194A      2.586507   195A      2.623585   196A      2.652307  
     197A      2.665211   198A      2.698853   199A      2.754888  
     200A      2.783681   201A      2.786737   202A      2.824766  
     203A      2.833647   204A      2.886121   205A      2.916526  
     206A      2.974291   207A      3.001602   208A      3.016316  
     209A      3.043268   210A      3.178935   211A      3.183001  
     212A      3.279166   213A      3.311275   214A      3.346124  
     215A      3.357459   216A      3.432085   217A      3.487295  
     218A      3.663372   219A      3.666705   220A      3.690423  
     221A      3.736441   222A      3.740669   223A      3.759662  
     224A      3.790324   225A      3.805251   226A      3.900417  
     227A      4.026724   228A      4.050368   229A      4.142340  
     230A      4.154265   231A      4.309953   232A      4.505578  
     233A      4.617509   234A      4.725551   235A      4.926550  
     236A      4.970390   237A      4.978627   238A      5.002318  
     239A      5.017491   240A      5.034360   241A      5.053123  
     242A      5.222648   243A      5.244834   244A      5.615838  
     245A      5.661852   246A      5.791968   247A      5.869698  
     248A      6.053454   249A      6.229519   250A      6.521416  
     251A      6.790914   252A      7.093620   253A     18.346902  
     254A     18.941403   255A     33.526209   256A     33.564211  

    Final Occupation by Irrep:
              A 
    DOCC [    16 ]

  @DF-RHF Final Energy:  -227.84408589651301

   => Energetics <=

    Nuclear Repulsion Energy =            121.7484302134348013
    One-Electron Energy =                -552.7483714397106951
    Two-Electron Energy =                 203.1558553297628862
    Total Energy =                       -227.8440858965130076

Computation Completed


Properties will be evaluated at   0.000000,   0.000000,   0.000000 [a0]

Properties computed using the SCF density matrix

  Nuclear Dipole Moment: [e a0]
     X:  -653.1637      Y:  1169.0878      Z:  -111.7653

  Electronic Dipole Moment: [e a0]
     X:   652.3356      Y: -1168.8049      Z:   111.6821

  Dipole Moment: [e a0]
     X:    -0.8281      Y:     0.2829      Z:    -0.0832     Total:     0.8790

  Dipole Moment: [D]
     X:    -2.1048      Y:     0.7191      Z:    -0.2116     Total:     2.2342


*** tstop() called on ds1 at Wed Sep  1 14:23:51 2021
Module time:
	user time   =      10.43 seconds =       0.17 minutes
	system time =       0.20 seconds =       0.00 minutes
	total time  =          2 seconds =       0.03 minutes
Total time:
	user time   =      35.39 seconds =       0.59 minutes
	system time =       0.79 seconds =       0.01 minutes
	total time  =          8 seconds =       0.13 minutes
  Constructing Basis Sets for SAPT...

   => Loading Basis Set <=

    Name: (AUG-CC-PVDZ AUX)
    Role: RIFIT
    Keyword: DF_BASIS_SAPT
    atoms 1-2, 9-10  entry O          line   204 file /theoryfs2/ds/csargent/miniconda3/envs/cle/share/psi4/basis/aug-cc-pvdz-ri.gbs 
    atoms 3-6, 11-14 entry H          line    30 file /theoryfs2/ds/csargent/miniconda3/envs/cle/share/psi4/basis/aug-cc-pvdz-ri.gbs 
    atoms 7-8, 15-16 entry C          line   112 file /theoryfs2/ds/csargent/miniconda3/envs/cle/share/psi4/basis/aug-cc-pvdz-ri.gbs 


  //>>>>>>>>>>>>>>>>>>>>>>>>>>>>>>>>>>>//
  //               SAPT0               //
  //<<<<<<<<<<<<<<<<<<<<<<<<<<<<<<<<<<<//


*** tstart() called on ds1
*** at Wed Sep  1 14:23:51 2021

        SAPT0  
    Ed Hohenstein
     6 June 2009

      Orbital Information
  --------------------------
    NSO        =       256
    NMO        =       256
    NRI        =       760
    NOCC A     =        16
    NOCC B     =        16
    FOCC A     =         4
    FOCC B     =         4
    NVIR A     =       240
    NVIR B     =       240

    Elst10,r            =     0.000006127734 [Eh]
    Exch10              =    -0.000000000000 [Eh]
    Exch10 (S^2)        =    -0.000000000000 [Eh]

    Iter     Energy [mEh]          dE [mEh]         Residual      Time [s]
       1      -0.00001058       0.000010581       0.024563794             0
       2      -0.00001034      -0.000000237       0.007876768             0
       3      -0.00001092       0.000000577       0.003510608             0
       4      -0.00001113       0.000000211       0.000566952             0
       5      -0.00001110      -0.000000027       0.000280027             0
       6      -0.00001110      -0.000000006       0.000095680             0
       7      -0.00001110       0.000000003       0.000035638             0
       8      -0.00001110       0.000000000       0.000011039             0
       9      -0.00001110      -0.000000000       0.000003747             0
      10      -0.00001110      -0.000000000       0.000001396             0
      11      -0.00001110       0.000000000       0.000000424             1

    CHF Iterations converged


    Iter     Energy [mEh]          dE [mEh]         Residual      Time [s]
       1      -0.00001107       0.000011067       0.024153454             0
       2      -0.00001141       0.000000342       0.009926675             0
       3      -0.00001213       0.000000725       0.003711806             0
       4      -0.00001234       0.000000207       0.000669287             0
       5      -0.00001232      -0.000000024       0.000322095             0
       6      -0.00001231      -0.000000011       0.000096510             0
       7      -0.00001231       0.000000002       0.000041724             0
       8      -0.00001231       0.000000001       0.000011670             0
       9      -0.00001231      -0.000000000       0.000004155             0
      10      -0.00001231      -0.000000000       0.000001427             0
      11      -0.00001231       0.000000000       0.000000476             0

    CHF Iterations converged

    Ind20,r (A<-B)      =    -0.000000011101 [Eh]
    Ind20,r (B<-A)      =    -0.000000012309 [Eh]
    Ind20,r             =    -0.000000023410 [Eh]
    Exch-Ind20,r (A<-B) =     0.000000000000 [Eh]
    Exch-Ind20,r (B<-A) =     0.000000000000 [Eh]
    Exch-Ind20,r        =     0.000000000000 [Eh]
    Disp20              =    -0.000000167351 [Eh]
    Disp20 (SS)         =    -0.000000083675 [Eh]
    Disp20 (OS)         =    -0.000000083675 [Eh]
    Exch-Disp20         =     0.000000000000 [Eh]
    Exch-Disp20 (SS)    =     0.000000000000 [Eh]
    Exch-Disp20 (OS)    =     0.000000000000 [Eh]

    SAPT Results 
  --------------------------------------------------------------------------------------------------------
    Electrostatics                  0.00612773 [mEh]       0.00384521 [kcal/mol]       0.01608836 [kJ/mol]
      Elst10,r                      0.00612773 [mEh]       0.00384521 [kcal/mol]       0.01608836 [kJ/mol]

    Exchange                       -0.00000000 [mEh]      -0.00000000 [kcal/mol]      -0.00000000 [kJ/mol]
      Exch10                       -0.00000000 [mEh]      -0.00000000 [kcal/mol]      -0.00000000 [kJ/mol]
      Exch10(S^2)                  -0.00000000 [mEh]      -0.00000000 [kcal/mol]      -0.00000000 [kJ/mol]

    Induction                      -0.00003080 [mEh]      -0.00001933 [kcal/mol]      -0.00008088 [kJ/mol]
      Ind20,r                      -0.00002341 [mEh]      -0.00001469 [kcal/mol]      -0.00006146 [kJ/mol]
      Exch-Ind20,r                  0.00000000 [mEh]       0.00000000 [kcal/mol]       0.00000000 [kJ/mol]
      delta HF,r (2)               -0.00000739 [mEh]      -0.00000464 [kcal/mol]      -0.00001941 [kJ/mol]

    Dispersion                     -0.00016735 [mEh]      -0.00010501 [kcal/mol]      -0.00043938 [kJ/mol]
      Disp20                       -0.00016735 [mEh]      -0.00010501 [kcal/mol]      -0.00043938 [kJ/mol]
      Exch-Disp20                   0.00000000 [mEh]       0.00000000 [kcal/mol]       0.00000000 [kJ/mol]
      Disp20 (SS)                  -0.00008368 [mEh]      -0.00005251 [kcal/mol]      -0.00021969 [kJ/mol]
      Disp20 (OS)                  -0.00008368 [mEh]      -0.00005251 [kcal/mol]      -0.00021969 [kJ/mol]
      Exch-Disp20 (SS)              0.00000000 [mEh]       0.00000000 [kcal/mol]       0.00000000 [kJ/mol]
      Exch-Disp20 (OS)              0.00000000 [mEh]       0.00000000 [kcal/mol]       0.00000000 [kJ/mol]

  Total HF                          0.00609693 [mEh]       0.00382588 [kcal/mol]       0.01600749 [kJ/mol]
  Total SAPT0                       0.00592958 [mEh]       0.00372087 [kcal/mol]       0.01556811 [kJ/mol]

  Special recipe for scaled SAPT0 (see Manual):
    Electrostatics sSAPT0           0.00612773 [mEh]       0.00384521 [kcal/mol]       0.01608836 [kJ/mol]
    Exchange sSAPT0                -0.00000000 [mEh]      -0.00000000 [kcal/mol]      -0.00000000 [kJ/mol]
    Induction sSAPT0               -0.00003080 [mEh]      -0.00001933 [kcal/mol]      -0.00008088 [kJ/mol]
    Dispersion sSAPT0              -0.00016735 [mEh]      -0.00010501 [kcal/mol]      -0.00043938 [kJ/mol]
  Total sSAPT0                      0.00592958 [mEh]       0.00372087 [kcal/mol]       0.01556811 [kJ/mol]
  --------------------------------------------------------------------------------------------------------

*** tstop() called on ds1 at Wed Sep  1 14:23:57 2021
Module time:
	user time   =      27.48 seconds =       0.46 minutes
	system time =       2.36 seconds =       0.04 minutes
	total time  =          6 seconds =       0.10 minutes
Total time:
	user time   =      63.65 seconds =       1.06 minutes
	system time =       3.18 seconds =       0.05 minutes
	total time  =         14 seconds =       0.23 minutes


Warning! sapt0 does not have an associated derived wavefunction.The returned wavefunction is the dimer SCF wavefunction.


    Psi4 stopped on: Wednesday, 01 September 2021 02:23PM
    Psi4 wall time for execution: 0:00:13.80

*** Psi4 exiting successfully. Buy a developer a beer!
