
    -----------------------------------------------------------------------
          Psi4: An Open-Source Ab Initio Electronic Structure Package
                               Psi4 1.4rc3 

                         Git: Rev {HEAD} 080dba6 


    D. G. A. Smith, L. A. Burns, A. C. Simmonett, R. M. Parrish,
    M. C. Schieber, R. Galvelis, P. Kraus, H. Kruse, R. Di Remigio,
    A. Alenaizan, A. M. James, S. Lehtola, J. P. Misiewicz, M. Scheurer,
    R. A. Shaw, J. B. Schriber, Y. Xie, Z. L. Glick, D. A. Sirianni,
    J. S. O'Brien, J. M. Waldrop, A. Kumar, E. G. Hohenstein,
    B. P. Pritchard, B. R. Brooks, H. F. Schaefer III, A. Yu. Sokolov,
    K. Patkowski, A. E. DePrince III, U. Bozkaya, R. A. King,
    F. A. Evangelista, J. M. Turney, T. D. Crawford, C. D. Sherrill,
    J. Chem. Phys. 152(18) 184108 (2020). https://doi.org/10.1063/5.0006002

                            Additional Code Authors
    E. T. Seidl, C. L. Janssen, E. F. Valeev, M. L. Leininger,
    J. F. Gonthier, R. M. Richard, H. R. McAlexander, M. Saitow, X. Wang,
    P. Verma, and M. H. Lechner

             Previous Authors, Complete List of Code Contributors,
                       and Citations for Specific Modules
    https://github.com/psi4/psi4/blob/master/codemeta.json
    https://github.com/psi4/psi4/graphs/contributors
    http://psicode.org/psi4manual/master/introduction.html#citing-psifour

    -----------------------------------------------------------------------


    Psi4 started on: Wednesday, 01 September 2021 02:17PM

    Process ID: 21321
    Host:       ds1
    PSIDATADIR: /theoryfs2/ds/csargent/miniconda3/envs/cle/share/psi4
    Memory:     500.0 MiB
    Threads:    6
    
  ==> Input File <==

--------------------------------------------------------------------------
# PSI4 file produced by CrystaLattE

# Generated from:               acetic_acid.xyz
# Psithon input for N-mer:      2mer-0+219
# Number of atoms per monomer:  [8, 8]
# Number of replicas:           2
# COM priority:                 2.858350177282e-05
# Minimum COM separations:      17.307 
# Separation priority:          5.457366097701e-05
# Minimum monomer separations:  13.951 
# Cutoff priority:              2.070033870228e-06
# Nuclear repulsion energy:     274.8452111812575

memory 7 GB

molecule Dimer_0_219 {
  O           -5.53102237       2.93940290       1.97762624 
  O           -2.40708886       0.90817734       0.04905909 
  H           -0.50304887       1.37579205       4.63880908 
  H            0.00000000       4.25104285       3.09072238 
  H           -2.38948215       4.01916779       5.40195041 
  H           -3.74771411       0.47147930      -1.21557512 
  C           -1.41859782       2.98500500       3.84405190 
  C           -3.32263781       2.28628814       1.91221413 
--
  O           -5.53102237       2.93940290     -30.72843073 
  O           -2.40708886       0.90817734     -32.65699789 
  H           -0.50304887       1.37579205     -28.06724789 
  H            0.00000000       4.25104285     -29.61533459 
  H           -2.38948215       4.01916779     -27.30410656 
  H           -3.74771411       0.47147930     -33.92163209 
  C           -1.41859782       2.98500500     -28.86200508 
  C           -3.32263781       2.28628814     -30.79384284 
units = au
no_com
no_reorient
}

set {
  e_convergence 10
  d_convergence 10
  scf_type df
  mp2_type df
  cc_type df
  freeze_core true
}

energy('sapt0/aug-cc-pvdz')

--------------------------------------------------------------------------

  Memory set to   6.519 GiB by Python driver.

Scratch directory: /scratch/csargent/psi4.17562.33784/

Scratch directory: /scratch/csargent/psi4.17562.33784/

  //>>>>>>>>>>>>>>>>>>>>>>>>>>>>>>>>>>>//
  //              Dimer HF             //
  //<<<<<<<<<<<<<<<<<<<<<<<<<<<<<<<<<<<//


*** tstart() called on ds1
*** at Wed Sep  1 14:17:54 2021

   => Loading Basis Set <=

    Name: AUG-CC-PVDZ
    Role: ORBITAL
    Keyword: BASIS
    atoms 1-2, 9-10  entry O          line   254 file /theoryfs2/ds/csargent/miniconda3/envs/cle/share/psi4/basis/aug-cc-pvdz.gbs 
    atoms 3-6, 11-14 entry H          line    40 file /theoryfs2/ds/csargent/miniconda3/envs/cle/share/psi4/basis/aug-cc-pvdz.gbs 
    atoms 7-8, 15-16 entry C          line   182 file /theoryfs2/ds/csargent/miniconda3/envs/cle/share/psi4/basis/aug-cc-pvdz.gbs 


         ---------------------------------------------------------
                                   SCF
               by Justin Turney, Rob Parrish, Andy Simmonett
                          and Daniel G. A. Smith
                              RHF Reference
                        6 Threads,   6675 MiB Core
         ---------------------------------------------------------

  ==> Geometry <==

    Molecular point group: c1
    Full point group: C1

    Geometry (in Bohr), charge = 0, multiplicity = 1:

       Center              X                  Y                   Z               Mass       
    ------------   -----------------  -----------------  -----------------  -----------------
         O           -5.531022370000     2.939402900000     1.977626240000    15.994914619570
         O           -2.407088860000     0.908177340000     0.049059090000    15.994914619570
         H           -0.503048870000     1.375792050000     4.638809080000     1.007825032230
         H            0.000000000000     4.251042850000     3.090722380000     1.007825032230
         H           -2.389482150000     4.019167790000     5.401950410000     1.007825032230
         H           -3.747714110000     0.471479300000    -1.215575120000     1.007825032230
         C           -1.418597820000     2.985005000000     3.844051900000    12.000000000000
         C           -3.322637810000     2.286288140000     1.912214130000    12.000000000000
         O           -5.531022370000     2.939402900000   -30.728430730000    15.994914619570
         O           -2.407088860000     0.908177340000   -32.656997890000    15.994914619570
         H           -0.503048870000     1.375792050000   -28.067247890000     1.007825032230
         H            0.000000000000     4.251042850000   -29.615334590000     1.007825032230
         H           -2.389482150000     4.019167790000   -27.304106560000     1.007825032230
         H           -3.747714110000     0.471479300000   -33.921632090000     1.007825032230
         C           -1.418597820000     2.985005000000   -28.862005080000    12.000000000000
         C           -3.322637810000     2.286288140000   -30.793842840000    12.000000000000

  Running in c1 symmetry.

  Rotational constants: A =      0.04217  B =      0.00103  C =      0.00101 [cm^-1]
  Rotational constants: A =   1264.27008  B =     30.89830  C =     30.29506 [MHz]
  Nuclear repulsion =  274.845211183464528

  Charge       = 0
  Multiplicity = 1
  Electrons    = 64
  Nalpha       = 32
  Nbeta        = 32

  ==> Algorithm <==

  SCF Algorithm Type is DF.
  DIIS enabled.
  MOM disabled.
  Fractional occupation disabled.
  Guess Type is SAD.
  Energy threshold   = 1.00e-10
  Density threshold  = 1.00e-10
  Integral threshold = 1.00e-12

  ==> Primary Basis <==

  Basis Set: AUG-CC-PVDZ
    Blend: AUG-CC-PVDZ
    Number of shells: 112
    Number of basis functions: 256
    Number of Cartesian functions: 272
    Spherical Harmonics?: true
    Max angular momentum: 2

   => Loading Basis Set <=

    Name: (AUG-CC-PVDZ AUX)
    Role: JKFIT
    Keyword: DF_BASIS_SCF
    atoms 1-2, 9-10  entry O          line   270 file /theoryfs2/ds/csargent/miniconda3/envs/cle/share/psi4/basis/aug-cc-pvdz-jkfit.gbs 
    atoms 3-6, 11-14 entry H          line    70 file /theoryfs2/ds/csargent/miniconda3/envs/cle/share/psi4/basis/aug-cc-pvdz-jkfit.gbs 
    atoms 7-8, 15-16 entry C          line   154 file /theoryfs2/ds/csargent/miniconda3/envs/cle/share/psi4/basis/aug-cc-pvdz-jkfit.gbs 

  ==> Integral Setup <==

  ==> DiskDFJK: Density-Fitted J/K Matrices <==

    J tasked:                  Yes
    K tasked:                  Yes
    wK tasked:                  No
    OpenMP threads:              6
    Integrals threads:           6
    Memory [MiB]:             5006
    Algorithm:                Core
    Integral Cache:           SAVE
    Schwarz Cutoff:          1E-12
    Fitting Condition:       1E-10

   => Auxiliary Basis Set <=

  Basis Set: (AUG-CC-PVDZ AUX)
    Blend: AUG-CC-PVDZ-JKFIT
    Number of shells: 320
    Number of basis functions: 944
    Number of Cartesian functions: 1088
    Spherical Harmonics?: true
    Max angular momentum: 3

  Minimum eigenvalue in the overlap matrix is 1.0276792806E-04.
  Reciprocal condition number of the overlap matrix is 9.6532067974E-06.
    Using symmetric orthogonalization.

  ==> Pre-Iterations <==

  SCF Guess: Superposition of Atomic Densities via on-the-fly atomic UHF (no occupation information).

   -------------------------
    Irrep   Nso     Nmo    
   -------------------------
     A        256     256 
   -------------------------
    Total     256     256
   -------------------------

  ==> Iterations <==

                           Total Energy        Delta E     RMS |[F,P]|

   @DF-RHF iter SAD:  -453.97985885698864   -4.53980e+02   0.00000e+00 
   @DF-RHF iter   1:  -455.36177617338797   -1.38192e+00   3.22747e-03 DIIS
   @DF-RHF iter   2:  -455.60177774834330   -2.40002e-01   1.87384e-03 DIIS
   @DF-RHF iter   3:  -455.68261524682106   -8.08375e-02   3.30464e-04 DIIS
   @DF-RHF iter   4:  -455.68709016449088   -4.47492e-03   1.46203e-04 DIIS
   @DF-RHF iter   5:  -455.68805270179701   -9.62537e-04   3.42596e-05 DIIS
   @DF-RHF iter   6:  -455.68812710021916   -7.43984e-05   1.66640e-05 DIIS
   @DF-RHF iter   7:  -455.68814669562585   -1.95954e-05   5.43722e-06 DIIS
   @DF-RHF iter   8:  -455.68814986066911   -3.16504e-06   1.43693e-06 DIIS
   @DF-RHF iter   9:  -455.68815009409388   -2.33425e-07   3.01164e-07 DIIS
   @DF-RHF iter  10:  -455.68815010173546   -7.64157e-09   7.94269e-08 DIIS
   @DF-RHF iter  11:  -455.68815010214212   -4.06658e-10   2.54852e-08 DIIS
   @DF-RHF iter  12:  -455.68815010218611   -4.39968e-11   6.06124e-09 DIIS
   @DF-RHF iter  13:  -455.68815010218913   -3.01270e-12   1.41194e-09 DIIS
   @DF-RHF iter  14:  -455.68815010218901    1.13687e-13   7.55157e-10 DIIS
   @DF-RHF iter  15:  -455.68815010218952   -5.11591e-13   2.02265e-10 DIIS
   @DF-RHF iter  16:  -455.68815010218941    1.13687e-13   5.80907e-11 DIIS
  Energy and wave function converged.


  ==> Post-Iterations <==

    Orbital Energies [Eh]
    ---------------------

    Doubly Occupied:                                                      

       1A    -20.629671     2A    -20.629525     3A    -20.552997  
       4A    -20.552820     5A    -11.396308     6A    -11.396132  
       7A    -11.251228     8A    -11.251032     9A     -1.476048  
      10A     -1.475892    11A     -1.357678    12A     -1.357508  
      13A     -1.033234    14A     -1.033048    15A     -0.838140  
      16A     -0.837980    17A     -0.703257    18A     -0.703089  
      19A     -0.688681    20A     -0.688507    21A     -0.657962  
      22A     -0.657794    23A     -0.576747    24A     -0.576576  
      25A     -0.569930    26A     -0.569753    27A     -0.561645  
      28A     -0.561453    29A     -0.475530    30A     -0.475359  
      31A     -0.452628    32A     -0.452451  

    Virtual:                                                              

      33A      0.031970    34A      0.032126    35A      0.045394  
      36A      0.045580    37A      0.054779    38A      0.054970  
      39A      0.064405    40A      0.064623    41A      0.098521  
      42A      0.098737    43A      0.117115    44A      0.117284  
      45A      0.117637    46A      0.117841    47A      0.140330  
      48A      0.140519    49A      0.151707    50A      0.151880  
      51A      0.156091    52A      0.156311    53A      0.164343  
      54A      0.164548    55A      0.171093    56A      0.171291  
      57A      0.196070    58A      0.196254    59A      0.209048  
      60A      0.209188    61A      0.233168    62A      0.233316  
      63A      0.234751    64A      0.234921    65A      0.270617  
      66A      0.270813    67A      0.290140    68A      0.290301  
      69A      0.295558    70A      0.295729    71A      0.319634  
      72A      0.319807    73A      0.322603    74A      0.322788  
      75A      0.347041    76A      0.347228    77A      0.370457  
      78A      0.370643    79A      0.378620    80A      0.378808  
      81A      0.393909    82A      0.394081    83A      0.401209  
      84A      0.401390    85A      0.426448    86A      0.426611  
      87A      0.437968    88A      0.438170    89A      0.441758  
      90A      0.441935    91A      0.475356    92A      0.475514  
      93A      0.492110    94A      0.492295    95A      0.524514  
      96A      0.524703    97A      0.537052    98A      0.537243  
      99A      0.553244   100A      0.553429   101A      0.569498  
     102A      0.569693   103A      0.583546   104A      0.583739  
     105A      0.601892   106A      0.602046   107A      0.618004  
     108A      0.618186   109A      0.640083   110A      0.640260  
     111A      0.649069   112A      0.649249   113A      0.666461  
     114A      0.666649   115A      0.683988   116A      0.684171  
     117A      0.696970   118A      0.697153   119A      0.703323  
     120A      0.703520   121A      0.733061   122A      0.733241  
     123A      0.742521   124A      0.742709   125A      0.798212  
     126A      0.798409   127A      0.853365   128A      0.853539  
     129A      0.876641   130A      0.876810   131A      0.912202  
     132A      0.912370   133A      0.949480   134A      0.949652  
     135A      0.954160   136A      0.954334   137A      0.982933  
     138A      0.983104   139A      1.041337   140A      1.041506  
     141A      1.088581   142A      1.088771   143A      1.101598  
     144A      1.101789   145A      1.118135   146A      1.118325  
     147A      1.157324   148A      1.157480   149A      1.171931  
     150A      1.172095   151A      1.176143   152A      1.176317  
     153A      1.235819   154A      1.235970   155A      1.271993  
     156A      1.272169   157A      1.319043   158A      1.319216  
     159A      1.357988   160A      1.358158   161A      1.390240  
     162A      1.390425   163A      1.412222   164A      1.412410  
     165A      1.462609   166A      1.462778   167A      1.467787  
     168A      1.467944   169A      1.545780   170A      1.545966  
     171A      1.634837   172A      1.635005   173A      1.649703  
     174A      1.649874   175A      1.714886   176A      1.715060  
     177A      1.755577   178A      1.755758   179A      1.772644  
     180A      1.772834   181A      1.847835   182A      1.848016  
     183A      1.865268   184A      1.865450   185A      1.883558  
     186A      1.883751   187A      1.966241   188A      1.966401  
     189A      1.979254   190A      1.979425   191A      2.026069  
     192A      2.026255   193A      2.037431   194A      2.037602  
     195A      2.122638   196A      2.122810   197A      2.171823  
     198A      2.171998   199A      2.192913   200A      2.193092  
     201A      2.244535   202A      2.244723   203A      2.253419  
     204A      2.253597   205A      2.272145   206A      2.272325  
     207A      2.312026   208A      2.312201   209A      2.379368  
     210A      2.379554   211A      2.430118   212A      2.430287  
     213A      2.438431   214A      2.438613   215A      2.536074  
     216A      2.536258   217A      2.623371   218A      2.623547  
     219A      2.652061   220A      2.652256   221A      2.783451  
     222A      2.783637   223A      2.833422   224A      2.833601  
     225A      2.885886   226A      2.886071   227A      2.974072  
     228A      2.974240   229A      3.001364   230A      3.001550  
     231A      3.016095   232A      3.016271   233A      3.178727  
     234A      3.178892   235A      3.345924   236A      3.346097  
     237A      3.666509   238A      3.666657   239A      3.690228  
     240A      3.690377   241A      3.736249   242A      3.736406  
     243A      3.759476   244A      3.759649   245A      3.790134  
     246A      3.790302   247A      3.805064   248A      3.805238  
     249A      3.900226   250A      3.900385   251A      4.050178  
     252A      4.050344   253A      4.142154   254A      4.142324  
     255A      4.309756   256A      4.309906  

    Final Occupation by Irrep:
              A 
    DOCC [    32 ]

  @DF-RHF Final Energy:  -455.68815010218941

   => Energetics <=

    Nuclear Repulsion Energy =            274.8452111834645279
    One-Electron Energy =               -1168.1855172899006448
    Two-Electron Energy =                 437.6521560042467627
    Total Energy =                       -455.6881501021894110

Computation Completed


Properties will be evaluated at   0.000000,   0.000000,   0.000000 [a0]

Properties computed using the SCF density matrix

  Nuclear Dipole Moment: [e a0]
     X:  -197.1851      Y:   145.0518      Z:  -921.2599

  Electronic Dipole Moment: [e a0]
     X:   198.8397      Y:  -145.6170      Z:   921.0930

  Dipole Moment: [e a0]
     X:     1.6546      Y:    -0.5653      Z:    -0.1669     Total:     1.7564

  Dipole Moment: [D]
     X:     4.2055      Y:    -1.4368      Z:    -0.4241     Total:     4.4643


*** tstop() called on ds1 at Wed Sep  1 14:17:58 2021
Module time:
	user time   =      14.47 seconds =       0.24 minutes
	system time =       0.39 seconds =       0.01 minutes
	total time  =          4 seconds =       0.07 minutes
Total time:
	user time   =      14.47 seconds =       0.24 minutes
	system time =       0.39 seconds =       0.01 minutes
	total time  =          4 seconds =       0.07 minutes

  //>>>>>>>>>>>>>>>>>>>>>>>>>>>>>>>>>>>//
  //            Monomer A HF           //
  //<<<<<<<<<<<<<<<<<<<<<<<<<<<<<<<<<<<//


*** tstart() called on ds1
*** at Wed Sep  1 14:17:58 2021

   => Loading Basis Set <=

    Name: AUG-CC-PVDZ
    Role: ORBITAL
    Keyword: BASIS
    atoms 1-2, 9-10  entry O          line   254 file /theoryfs2/ds/csargent/miniconda3/envs/cle/share/psi4/basis/aug-cc-pvdz.gbs 
    atoms 3-6, 11-14 entry H          line    40 file /theoryfs2/ds/csargent/miniconda3/envs/cle/share/psi4/basis/aug-cc-pvdz.gbs 
    atoms 7-8, 15-16 entry C          line   182 file /theoryfs2/ds/csargent/miniconda3/envs/cle/share/psi4/basis/aug-cc-pvdz.gbs 


         ---------------------------------------------------------
                                   SCF
               by Justin Turney, Rob Parrish, Andy Simmonett
                          and Daniel G. A. Smith
                              RHF Reference
                        6 Threads,   6675 MiB Core
         ---------------------------------------------------------

  ==> Geometry <==

    Molecular point group: c1
    Full point group: C1

    Geometry (in Bohr), charge = 0, multiplicity = 1:

       Center              X                  Y                   Z               Mass       
    ------------   -----------------  -----------------  -----------------  -----------------
         O           -5.531022370000     2.939402900000     1.977626240000    15.994914619570
         O           -2.407088860000     0.908177340000     0.049059090000    15.994914619570
         H           -0.503048870000     1.375792050000     4.638809080000     1.007825032230
         H            0.000000000000     4.251042850000     3.090722380000     1.007825032230
         H           -2.389482150000     4.019167790000     5.401950410000     1.007825032230
         H           -3.747714110000     0.471479300000    -1.215575120000     1.007825032230
         C           -1.418597820000     2.985005000000     3.844051900000    12.000000000000
         C           -3.322637810000     2.286288140000     1.912214130000    12.000000000000
      Gh(O)          -5.531022370000     2.939402900000   -30.728430730000    15.994914619570
      Gh(O)          -2.407088860000     0.908177340000   -32.656997890000    15.994914619570
      Gh(H)          -0.503048870000     1.375792050000   -28.067247890000     1.007825032230
      Gh(H)           0.000000000000     4.251042850000   -29.615334590000     1.007825032230
      Gh(H)          -2.389482150000     4.019167790000   -27.304106560000     1.007825032230
      Gh(H)          -3.747714110000     0.471479300000   -33.921632090000     1.007825032230
      Gh(C)          -1.418597820000     2.985005000000   -28.862005080000    12.000000000000
      Gh(C)          -3.322637810000     2.286288140000   -30.793842840000    12.000000000000

  Running in c1 symmetry.

  Rotational constants: A =      0.04217  B =      0.00103  C =      0.00101 [cm^-1]
  Rotational constants: A =   1264.27008  B =     30.89830  C =     30.29506 [MHz]
  Nuclear repulsion =  121.748430210971620

  Charge       = 0
  Multiplicity = 1
  Electrons    = 32
  Nalpha       = 16
  Nbeta        = 16

  ==> Algorithm <==

  SCF Algorithm Type is DF.
  DIIS enabled.
  MOM disabled.
  Fractional occupation disabled.
  Guess Type is SAD.
  Energy threshold   = 1.00e-10
  Density threshold  = 1.00e-10
  Integral threshold = 1.00e-12

  ==> Primary Basis <==

  Basis Set: AUG-CC-PVDZ
    Blend: AUG-CC-PVDZ
    Number of shells: 112
    Number of basis functions: 256
    Number of Cartesian functions: 272
    Spherical Harmonics?: true
    Max angular momentum: 2

   => Loading Basis Set <=

    Name: (AUG-CC-PVDZ AUX)
    Role: JKFIT
    Keyword: DF_BASIS_SCF
    atoms 1-2, 9-10  entry O          line   270 file /theoryfs2/ds/csargent/miniconda3/envs/cle/share/psi4/basis/aug-cc-pvdz-jkfit.gbs 
    atoms 3-6, 11-14 entry H          line    70 file /theoryfs2/ds/csargent/miniconda3/envs/cle/share/psi4/basis/aug-cc-pvdz-jkfit.gbs 
    atoms 7-8, 15-16 entry C          line   154 file /theoryfs2/ds/csargent/miniconda3/envs/cle/share/psi4/basis/aug-cc-pvdz-jkfit.gbs 

  ==> Integral Setup <==

  ==> DiskDFJK: Density-Fitted J/K Matrices <==

    J tasked:                  Yes
    K tasked:                  Yes
    wK tasked:                  No
    OpenMP threads:              6
    Integrals threads:           6
    Memory [MiB]:             5006
    Algorithm:                Core
    Integral Cache:           LOAD
    Schwarz Cutoff:          1E-12
    Fitting Condition:       1E-10

   => Auxiliary Basis Set <=

  Basis Set: (AUG-CC-PVDZ AUX)
    Blend: AUG-CC-PVDZ-JKFIT
    Number of shells: 320
    Number of basis functions: 944
    Number of Cartesian functions: 1088
    Spherical Harmonics?: true
    Max angular momentum: 3

  Minimum eigenvalue in the overlap matrix is 1.0276792806E-04.
  Reciprocal condition number of the overlap matrix is 9.6532067974E-06.
    Using symmetric orthogonalization.

  ==> Pre-Iterations <==

  SCF Guess: Superposition of Atomic Densities via on-the-fly atomic UHF (no occupation information).

   -------------------------
    Irrep   Nso     Nmo    
   -------------------------
     A        256     256 
   -------------------------
    Total     256     256
   -------------------------

  ==> Iterations <==

                           Total Energy        Delta E     RMS |[F,P]|

   @DF-RHF iter SAD:  -226.98992942943414   -2.26990e+02   0.00000e+00 
   @DF-RHF iter   1:  -227.68091168086116   -6.90982e-01   2.28211e-03 DIIS
   @DF-RHF iter   2:  -227.80091445397414   -1.20003e-01   1.32478e-03 DIIS
   @DF-RHF iter   3:  -227.84131987321746   -4.04054e-02   2.33581e-04 DIIS
   @DF-RHF iter   4:  -227.84355633674951   -2.23646e-03   1.03339e-04 DIIS
   @DF-RHF iter   5:  -227.84403723775119   -4.80901e-04   2.42136e-05 DIIS
   @DF-RHF iter   6:  -227.84407440574898   -3.71680e-05   1.17797e-05 DIIS
   @DF-RHF iter   7:  -227.84408419387523   -9.78813e-06   3.84272e-06 DIIS
   @DF-RHF iter   8:  -227.84408577546199   -1.58159e-06   1.01577e-06 DIIS
   @DF-RHF iter   9:  -227.84408589211222   -1.16650e-07   2.12954e-07 DIIS
   @DF-RHF iter  10:  -227.84408589593238   -3.82016e-09   5.61608e-08 DIIS
   @DF-RHF iter  11:  -227.84408589613642   -2.04039e-10   1.80147e-08 DIIS
   @DF-RHF iter  12:  -227.84408589615822   -2.17995e-11   4.26466e-09 DIIS
   @DF-RHF iter  13:  -227.84408589615998   -1.76215e-12   8.93569e-10 DIIS
   @DF-RHF iter  14:  -227.84408589615998    0.00000e+00   2.86710e-10 DIIS
   @DF-RHF iter  15:  -227.84408589615987    1.13687e-13   1.08058e-10 DIIS
   @DF-RHF iter  16:  -227.84408589615998   -1.13687e-13   2.86097e-11 DIIS
  Energy and wave function converged.


  ==> Post-Iterations <==

    Orbital Energies [Eh]
    ---------------------

    Doubly Occupied:                                                      

       1A    -20.629476     2A    -20.552804     3A    -11.396108  
       4A    -11.250979     5A     -1.475853     6A     -1.357486  
       7A     -1.032999     8A     -0.837930     9A     -0.703065  
      10A     -0.688465    11A     -0.657749    12A     -0.576538  
      13A     -0.569697    14A     -0.561403    15A     -0.475343  
      16A     -0.452434  

    Virtual:                                                              

      17A      0.024530    18A      0.032214    19A      0.045623  
      20A      0.046644    21A      0.055083    22A      0.055236  
      23A      0.056297    24A      0.064645    25A      0.085214  
      26A      0.098769    27A      0.104368    28A      0.111956  
      29A      0.117070    30A      0.117323    31A      0.117857  
      32A      0.140152    33A      0.140563    34A      0.141139  
      35A      0.146584    36A      0.151977    37A      0.156356  
      38A      0.164577    39A      0.171320    40A      0.176162  
      41A      0.196303    42A      0.205430    43A      0.209237  
      44A      0.214416    45A      0.226078    46A      0.233376  
      47A      0.234963    48A      0.243878    49A      0.260085  
      50A      0.264623    51A      0.270849    52A      0.276515  
      53A      0.285261    54A      0.290295    55A      0.295802  
      56A      0.319834    57A      0.322781    58A      0.332040  
      59A      0.335956    60A      0.347275    61A      0.369220  
      62A      0.370652    63A      0.378870    64A      0.394119  
      65A      0.399029    66A      0.401429    67A      0.409521  
      68A      0.426690    69A      0.430909    70A      0.437670  
      71A      0.438218    72A      0.442006    73A      0.460272  
      74A      0.475555    75A      0.490029    76A      0.492357  
      77A      0.497092    78A      0.516329    79A      0.524763  
      80A      0.537262    81A      0.541578    82A      0.543337  
      83A      0.553487    84A      0.559407    85A      0.569740  
      86A      0.583791    87A      0.586562    88A      0.602101  
      89A      0.616133    90A      0.618231    91A      0.636032  
      92A      0.636869    93A      0.640311    94A      0.649301  
      95A      0.666705    96A      0.674926    97A      0.684210  
      98A      0.689724    99A      0.697190   100A      0.700585  
     101A      0.703571   102A      0.727863   103A      0.733289  
     104A      0.742748   105A      0.753435   106A      0.760072  
     107A      0.786920   108A      0.798460   109A      0.815524  
     110A      0.819863   111A      0.847998   112A      0.853582  
     113A      0.876833   114A      0.887961   115A      0.896187  
     116A      0.912403   117A      0.947406   118A      0.949697  
     119A      0.954375   120A      0.957895   121A      0.975704  
     122A      0.983144   123A      1.037779   124A      1.041547  
     125A      1.045006   126A      1.088819   127A      1.101839  
     128A      1.106210   129A      1.118367   130A      1.157520  
     131A      1.162391   132A      1.172141   133A      1.176359  
     134A      1.190695   135A      1.236033   136A      1.260486  
     137A      1.270077   138A      1.272187   139A      1.319230  
     140A      1.329392   141A      1.358181   142A      1.383934  
     143A      1.390440   144A      1.396076   145A      1.412451  
     146A      1.434508   147A      1.458182   148A      1.462795  
     149A      1.467471   150A      1.467976   151A      1.469347  
     152A      1.537363   153A      1.546014   154A      1.569125  
     155A      1.635048   156A      1.649915   157A      1.683518  
     158A      1.715101   159A      1.717302   160A      1.755800  
     161A      1.772884   162A      1.799816   163A      1.848039  
     164A      1.865503   165A      1.882626   166A      1.883811  
     167A      1.936797   168A      1.966454   169A      1.979453  
     170A      2.026298   171A      2.037642   172A      2.070562  
     173A      2.122848   174A      2.172049   175A      2.193137  
     176A      2.244771   177A      2.250678   178A      2.253643  
     179A      2.264714   180A      2.272354   181A      2.273781  
     182A      2.302771   183A      2.312246   184A      2.336378  
     185A      2.338885   186A      2.361926   187A      2.376365  
     188A      2.379604   189A      2.430330   190A      2.438663  
     191A      2.466995   192A      2.505696   193A      2.536303  
     194A      2.585818   195A      2.623585   196A      2.652307  
     197A      2.664529   198A      2.698125   199A      2.754157  
     200A      2.783681   201A      2.786016   202A      2.824035  
     203A      2.833647   204A      2.886121   205A      2.915839  
     206A      2.974291   207A      3.001602   208A      3.016316  
     209A      3.042563   210A      3.178935   211A      3.182285  
     212A      3.278437   213A      3.310563   214A      3.346124  
     215A      3.356743   216A      3.431394   217A      3.486567  
     218A      3.662678   219A      3.666705   220A      3.690423  
     221A      3.736441   222A      3.740016   223A      3.759662  
     224A      3.790324   225A      3.805251   226A      3.900417  
     227A      4.026060   228A      4.050368   229A      4.142340  
     230A      4.153625   231A      4.309953   232A      4.504935  
     233A      4.616856   234A      4.724843   235A      4.925912  
     236A      4.969745   237A      4.977985   238A      5.001683  
     239A      5.016843   240A      5.033710   241A      5.052398  
     242A      5.221970   243A      5.244132   244A      5.615194  
     245A      5.661205   246A      5.791327   247A      5.869052  
     248A      6.052810   249A      6.228877   250A      6.520774  
     251A      6.790272   252A      7.092976   253A     18.346190  
     254A     18.940700   255A     33.525572   256A     33.563572  

    Final Occupation by Irrep:
              A 
    DOCC [    16 ]

  @DF-RHF Final Energy:  -227.84408589615998

   => Energetics <=

    Nuclear Repulsion Energy =            121.7484302109716197
    One-Electron Energy =                -552.7483714379777666
    Two-Electron Energy =                 203.1558553308461796
    Total Energy =                       -227.8440858961599815

Computation Completed


Properties will be evaluated at   0.000000,   0.000000,   0.000000 [a0]

Properties computed using the SCF density matrix

  Nuclear Dipole Moment: [e a0]
     X:   -98.5925      Y:    72.5259      Z:    62.6670

  Electronic Dipole Moment: [e a0]
     X:    99.4206      Y:   -72.8088      Z:   -62.7502

  Dipole Moment: [e a0]
     X:     0.8281      Y:    -0.2829      Z:    -0.0832     Total:     0.8790

  Dipole Moment: [D]
     X:     2.1048      Y:    -0.7191      Z:    -0.2116     Total:     2.2342


*** tstop() called on ds1 at Wed Sep  1 14:18:00 2021
Module time:
	user time   =      10.71 seconds =       0.18 minutes
	system time =       0.20 seconds =       0.00 minutes
	total time  =          2 seconds =       0.03 minutes
Total time:
	user time   =      25.28 seconds =       0.42 minutes
	system time =       0.59 seconds =       0.01 minutes
	total time  =          6 seconds =       0.10 minutes

  //>>>>>>>>>>>>>>>>>>>>>>>>>>>>>>>>>>>//
  //            Monomer B HF           //
  //<<<<<<<<<<<<<<<<<<<<<<<<<<<<<<<<<<<//


*** tstart() called on ds1
*** at Wed Sep  1 14:18:00 2021

   => Loading Basis Set <=

    Name: AUG-CC-PVDZ
    Role: ORBITAL
    Keyword: BASIS
    atoms 1-2, 9-10  entry O          line   254 file /theoryfs2/ds/csargent/miniconda3/envs/cle/share/psi4/basis/aug-cc-pvdz.gbs 
    atoms 3-6, 11-14 entry H          line    40 file /theoryfs2/ds/csargent/miniconda3/envs/cle/share/psi4/basis/aug-cc-pvdz.gbs 
    atoms 7-8, 15-16 entry C          line   182 file /theoryfs2/ds/csargent/miniconda3/envs/cle/share/psi4/basis/aug-cc-pvdz.gbs 


         ---------------------------------------------------------
                                   SCF
               by Justin Turney, Rob Parrish, Andy Simmonett
                          and Daniel G. A. Smith
                              RHF Reference
                        6 Threads,   6675 MiB Core
         ---------------------------------------------------------

  ==> Geometry <==

    Molecular point group: c1
    Full point group: C1

    Geometry (in Bohr), charge = 0, multiplicity = 1:

       Center              X                  Y                   Z               Mass       
    ------------   -----------------  -----------------  -----------------  -----------------
      Gh(O)          -5.531022370000     2.939402900000     1.977626240000    15.994914619570
      Gh(O)          -2.407088860000     0.908177340000     0.049059090000    15.994914619570
      Gh(H)          -0.503048870000     1.375792050000     4.638809080000     1.007825032230
      Gh(H)           0.000000000000     4.251042850000     3.090722380000     1.007825032230
      Gh(H)          -2.389482150000     4.019167790000     5.401950410000     1.007825032230
      Gh(H)          -3.747714110000     0.471479300000    -1.215575120000     1.007825032230
      Gh(C)          -1.418597820000     2.985005000000     3.844051900000    12.000000000000
      Gh(C)          -3.322637810000     2.286288140000     1.912214130000    12.000000000000
         O           -5.531022370000     2.939402900000   -30.728430730000    15.994914619570
         O           -2.407088860000     0.908177340000   -32.656997890000    15.994914619570
         H           -0.503048870000     1.375792050000   -28.067247890000     1.007825032230
         H            0.000000000000     4.251042850000   -29.615334590000     1.007825032230
         H           -2.389482150000     4.019167790000   -27.304106560000     1.007825032230
         H           -3.747714110000     0.471479300000   -33.921632090000     1.007825032230
         C           -1.418597820000     2.985005000000   -28.862005080000    12.000000000000
         C           -3.322637810000     2.286288140000   -30.793842840000    12.000000000000

  Running in c1 symmetry.

  Rotational constants: A =      0.04217  B =      0.00103  C =      0.00101 [cm^-1]
  Rotational constants: A =   1264.27008  B =     30.89830  C =     30.29506 [MHz]
  Nuclear repulsion =  121.748430176936026

  Charge       = 0
  Multiplicity = 1
  Electrons    = 32
  Nalpha       = 16
  Nbeta        = 16

  ==> Algorithm <==

  SCF Algorithm Type is DF.
  DIIS enabled.
  MOM disabled.
  Fractional occupation disabled.
  Guess Type is SAD.
  Energy threshold   = 1.00e-10
  Density threshold  = 1.00e-10
  Integral threshold = 1.00e-12

  ==> Primary Basis <==

  Basis Set: AUG-CC-PVDZ
    Blend: AUG-CC-PVDZ
    Number of shells: 112
    Number of basis functions: 256
    Number of Cartesian functions: 272
    Spherical Harmonics?: true
    Max angular momentum: 2

   => Loading Basis Set <=

    Name: (AUG-CC-PVDZ AUX)
    Role: JKFIT
    Keyword: DF_BASIS_SCF
    atoms 1-2, 9-10  entry O          line   270 file /theoryfs2/ds/csargent/miniconda3/envs/cle/share/psi4/basis/aug-cc-pvdz-jkfit.gbs 
    atoms 3-6, 11-14 entry H          line    70 file /theoryfs2/ds/csargent/miniconda3/envs/cle/share/psi4/basis/aug-cc-pvdz-jkfit.gbs 
    atoms 7-8, 15-16 entry C          line   154 file /theoryfs2/ds/csargent/miniconda3/envs/cle/share/psi4/basis/aug-cc-pvdz-jkfit.gbs 

  ==> Integral Setup <==

  ==> DiskDFJK: Density-Fitted J/K Matrices <==

    J tasked:                  Yes
    K tasked:                  Yes
    wK tasked:                  No
    OpenMP threads:              6
    Integrals threads:           6
    Memory [MiB]:             5006
    Algorithm:                Core
    Integral Cache:           LOAD
    Schwarz Cutoff:          1E-12
    Fitting Condition:       1E-10

   => Auxiliary Basis Set <=

  Basis Set: (AUG-CC-PVDZ AUX)
    Blend: AUG-CC-PVDZ-JKFIT
    Number of shells: 320
    Number of basis functions: 944
    Number of Cartesian functions: 1088
    Spherical Harmonics?: true
    Max angular momentum: 3

  Minimum eigenvalue in the overlap matrix is 1.0276792806E-04.
  Reciprocal condition number of the overlap matrix is 9.6532067974E-06.
    Using symmetric orthogonalization.

  ==> Pre-Iterations <==

  SCF Guess: Superposition of Atomic Densities via on-the-fly atomic UHF (no occupation information).

   -------------------------
    Irrep   Nso     Nmo    
   -------------------------
     A        256     256 
   -------------------------
    Total     256     256
   -------------------------

  ==> Iterations <==

                           Total Energy        Delta E     RMS |[F,P]|

   @DF-RHF iter SAD:  -226.98992942675756   -2.26990e+02   0.00000e+00 
   @DF-RHF iter   1:  -227.68091167774688   -6.90982e-01   2.28211e-03 DIIS
   @DF-RHF iter   2:  -227.80091445113837   -1.20003e-01   1.32478e-03 DIIS
   @DF-RHF iter   3:  -227.84131987062352   -4.04054e-02   2.33581e-04 DIIS
   @DF-RHF iter   4:  -227.84355633414270   -2.23646e-03   1.03339e-04 DIIS
   @DF-RHF iter   5:  -227.84403723514220   -4.80901e-04   2.42136e-05 DIIS
   @DF-RHF iter   6:  -227.84407440313890   -3.71680e-05   1.17797e-05 DIIS
   @DF-RHF iter   7:  -227.84408419126439   -9.78813e-06   3.84272e-06 DIIS
   @DF-RHF iter   8:  -227.84408577285097   -1.58159e-06   1.01577e-06 DIIS
   @DF-RHF iter   9:  -227.84408588950157   -1.16651e-07   2.12953e-07 DIIS
   @DF-RHF iter  10:  -227.84408589332202   -3.82045e-09   5.61608e-08 DIIS
   @DF-RHF iter  11:  -227.84408589352546   -2.03443e-10   1.80147e-08 DIIS
   @DF-RHF iter  12:  -227.84408589354757   -2.21121e-11   4.26466e-09 DIIS
   @DF-RHF iter  13:  -227.84408589354902   -1.44951e-12   8.93569e-10 DIIS
   @DF-RHF iter  14:  -227.84408589354908   -5.68434e-14   2.86710e-10 DIIS
   @DF-RHF iter  15:  -227.84408589354896    1.13687e-13   1.08058e-10 DIIS
   @DF-RHF iter  16:  -227.84408589354896    0.00000e+00   2.86096e-11 DIIS
  Energy and wave function converged.


  ==> Post-Iterations <==

    Orbital Energies [Eh]
    ---------------------

    Doubly Occupied:                                                      

       1A    -20.629476     2A    -20.552804     3A    -11.396108  
       4A    -11.250979     5A     -1.475853     6A     -1.357486  
       7A     -1.032999     8A     -0.837930     9A     -0.703065  
      10A     -0.688465    11A     -0.657749    12A     -0.576538  
      13A     -0.569697    14A     -0.561403    15A     -0.475343  
      16A     -0.452434  

    Virtual:                                                              

      17A      0.024707    18A      0.032214    19A      0.045625  
      20A      0.046806    21A      0.055083    22A      0.055441  
      23A      0.056469    24A      0.064644    25A      0.085388  
      26A      0.098769    27A      0.104538    28A      0.112161  
      29A      0.117280    30A      0.117327    31A      0.117857  
      32A      0.140344    33A      0.140552    34A      0.141310  
      35A      0.146800    36A      0.151977    37A      0.156356  
      38A      0.164577    39A      0.171320    40A      0.176347  
      41A      0.196303    42A      0.205571    43A      0.209237  
      44A      0.214558    45A      0.226230    46A      0.233376  
      47A      0.234963    48A      0.244054    49A      0.260280  
      50A      0.264776    51A      0.270849    52A      0.276690  
      53A      0.285408    54A      0.290295    55A      0.295802  
      56A      0.319834    57A      0.322781    58A      0.332206  
      59A      0.336156    60A      0.347275    61A      0.369427  
      62A      0.370652    63A      0.378870    64A      0.394119  
      65A      0.399232    66A      0.401429    67A      0.409717  
      68A      0.426691    69A      0.431111    70A      0.437854  
      71A      0.438218    72A      0.442006    73A      0.460416  
      74A      0.475555    75A      0.490194    76A      0.492357  
      77A      0.497257    78A      0.516499    79A      0.524763  
      80A      0.537262    81A      0.541718    82A      0.543526  
      83A      0.553487    84A      0.559587    85A      0.569740  
      86A      0.583791    87A      0.586748    88A      0.602101  
      89A      0.616293    90A      0.618231    91A      0.636220  
      92A      0.637036    93A      0.640311    94A      0.649301  
      95A      0.666705    96A      0.675096    97A      0.684210  
      98A      0.689914    99A      0.697190   100A      0.700780  
     101A      0.703571   102A      0.728060   103A      0.733289  
     104A      0.742748   105A      0.753619   106A      0.760268  
     107A      0.787100   108A      0.798460   109A      0.815719  
     110A      0.820060   111A      0.848180   112A      0.853581  
     113A      0.876833   114A      0.888163   115A      0.896365  
     116A      0.912403   117A      0.947593   118A      0.949697  
     119A      0.954375   120A      0.958078   121A      0.975881  
     122A      0.983144   123A      1.037950   124A      1.041547  
     125A      1.045175   126A      1.088819   127A      1.101839  
     128A      1.106387   129A      1.118367   130A      1.157520  
     131A      1.162556   132A      1.172141   133A      1.176359  
     134A      1.190847   135A      1.236033   136A      1.260643  
     137A      1.270238   138A      1.272187   139A      1.319230  
     140A      1.329548   141A      1.358181   142A      1.384100  
     143A      1.390440   144A      1.396232   145A      1.412451  
     146A      1.434684   147A      1.458327   148A      1.462795  
     149A      1.467628   150A      1.467976   151A      1.469497  
     152A      1.537526   153A      1.546014   154A      1.569284  
     155A      1.635048   156A      1.649915   157A      1.683674  
     158A      1.715101   159A      1.717474   160A      1.755800  
     161A      1.772884   162A      1.799974   163A      1.848039  
     164A      1.865503   165A      1.882828   166A      1.883811  
     167A      1.936993   168A      1.966454   169A      1.979453  
     170A      2.026298   171A      2.037642   172A      2.070751  
     173A      2.122848   174A      2.172049   175A      2.193137  
     176A      2.244771   177A      2.250886   178A      2.253643  
     179A      2.264911   180A      2.272354   181A      2.273934  
     182A      2.302961   183A      2.312246   184A      2.336573  
     185A      2.339089   186A      2.362105   187A      2.376539  
     188A      2.379604   189A      2.430330   190A      2.438663  
     191A      2.467161   192A      2.505843   193A      2.536303  
     194A      2.585993   195A      2.623585   196A      2.652307  
     197A      2.664695   198A      2.698313   199A      2.754350  
     200A      2.783681   201A      2.786214   202A      2.824226  
     203A      2.833647   204A      2.886121   205A      2.916006  
     206A      2.974291   207A      3.001602   208A      3.016316  
     209A      3.042744   210A      3.178935   211A      3.182475  
     212A      3.278625   213A      3.310747   214A      3.346124  
     215A      3.356930   216A      3.431577   217A      3.486761  
     218A      3.662858   219A      3.666705   220A      3.690423  
     221A      3.736441   222A      3.740164   223A      3.759662  
     224A      3.790324   225A      3.805251   226A      3.900417  
     227A      4.026240   228A      4.050368   229A      4.142340  
     230A      4.153759   231A      4.309953   232A      4.505106  
     233A      4.617008   234A      4.725030   235A      4.926076  
     236A      4.969913   237A      4.978127   238A      5.001857  
     239A      5.016995   240A      5.033852   241A      5.052587  
     242A      5.222153   243A      5.244323   244A      5.615324  
     245A      5.661352   246A      5.791475   247A      5.869226  
     248A      6.052975   249A      6.229054   250A      6.520909  
     251A      6.790417   252A      7.093138   253A     18.346376  
     254A     18.940883   255A     33.525753   256A     33.563700  

    Final Occupation by Irrep:
              A 
    DOCC [    16 ]

  @DF-RHF Final Energy:  -227.84408589354896

   => Energetics <=

    Nuclear Repulsion Energy =            121.7484301769360258
    One-Electron Energy =                -552.7483713596117241
    Two-Electron Energy =                 203.1558552891267198
    Total Energy =                       -227.8440858935489643

Computation Completed


Properties will be evaluated at   0.000000,   0.000000,   0.000000 [a0]

Properties computed using the SCF density matrix

  Nuclear Dipole Moment: [e a0]
     X:   -98.5925      Y:    72.5259      Z:  -983.9268

  Electronic Dipole Moment: [e a0]
     X:    99.4206      Y:   -72.8088      Z:   983.8436

  Dipole Moment: [e a0]
     X:     0.8281      Y:    -0.2829      Z:    -0.0832     Total:     0.8790

  Dipole Moment: [D]
     X:     2.1048      Y:    -0.7191      Z:    -0.2116     Total:     2.2342


*** tstop() called on ds1 at Wed Sep  1 14:18:02 2021
Module time:
	user time   =      10.66 seconds =       0.18 minutes
	system time =       0.18 seconds =       0.00 minutes
	total time  =          2 seconds =       0.03 minutes
Total time:
	user time   =      36.13 seconds =       0.60 minutes
	system time =       0.78 seconds =       0.01 minutes
	total time  =          8 seconds =       0.13 minutes
  Constructing Basis Sets for SAPT...

   => Loading Basis Set <=

    Name: (AUG-CC-PVDZ AUX)
    Role: RIFIT
    Keyword: DF_BASIS_SAPT
    atoms 1-2, 9-10  entry O          line   204 file /theoryfs2/ds/csargent/miniconda3/envs/cle/share/psi4/basis/aug-cc-pvdz-ri.gbs 
    atoms 3-6, 11-14 entry H          line    30 file /theoryfs2/ds/csargent/miniconda3/envs/cle/share/psi4/basis/aug-cc-pvdz-ri.gbs 
    atoms 7-8, 15-16 entry C          line   112 file /theoryfs2/ds/csargent/miniconda3/envs/cle/share/psi4/basis/aug-cc-pvdz-ri.gbs 


  //>>>>>>>>>>>>>>>>>>>>>>>>>>>>>>>>>>>//
  //               SAPT0               //
  //<<<<<<<<<<<<<<<<<<<<<<<<<<<<<<<<<<<//


*** tstart() called on ds1
*** at Wed Sep  1 14:18:03 2021

        SAPT0  
    Ed Hohenstein
     6 June 2009

      Orbital Information
  --------------------------
    NSO        =       256
    NMO        =       256
    NRI        =       760
    NOCC A     =        16
    NOCC B     =        16
    FOCC A     =         4
    FOCC B     =         4
    NVIR A     =       240
    NVIR B     =       240

    Elst10,r            =     0.000021737589 [Eh]
    Exch10              =    -0.000000000000 [Eh]
    Exch10 (S^2)        =    -0.000000000000 [Eh]

    Iter     Energy [mEh]          dE [mEh]         Residual      Time [s]
       1      -0.00001339       0.000013391       0.042272821             0
       2      -0.00001303      -0.000000363       0.012364230             0
       3      -0.00001478       0.000001754       0.004264714             0
       4      -0.00001491       0.000000127       0.001727886             0
       5      -0.00001484      -0.000000073       0.000763539             0
       6      -0.00001482      -0.000000017       0.000180347             1
       7      -0.00001483       0.000000008       0.000048984             1
       8      -0.00001483       0.000000001       0.000011403             1
       9      -0.00001483      -0.000000000       0.000003187             1
      10      -0.00001483      -0.000000000       0.000000779             1

    CHF Iterations converged


    Iter     Energy [mEh]          dE [mEh]         Residual      Time [s]
       1      -0.00001125       0.000011252       0.030292510             0
       2      -0.00001163       0.000000381       0.012046382             0
       3      -0.00001289       0.000001258       0.004050058             0
       4      -0.00001307       0.000000183       0.001243164             0
       5      -0.00001300      -0.000000078       0.000421796             0
       6      -0.00001300      -0.000000000       0.000153399             0
       7      -0.00001300       0.000000004       0.000050039             0
       8      -0.00001300       0.000000001       0.000012793             0
       9      -0.00001300      -0.000000000       0.000004292             1
      10      -0.00001300      -0.000000000       0.000001474             1
      11      -0.00001300       0.000000000       0.000000508             1

    CHF Iterations converged

    Ind20,r (A<-B)      =    -0.000000014827 [Eh]
    Ind20,r (B<-A)      =    -0.000000013001 [Eh]
    Ind20,r             =    -0.000000027828 [Eh]
    Exch-Ind20,r (A<-B) =     0.000000000000 [Eh]
    Exch-Ind20,r (B<-A) =     0.000000000000 [Eh]
    Exch-Ind20,r        =     0.000000000000 [Eh]
    Disp20              =    -0.000000491151 [Eh]
    Disp20 (SS)         =    -0.000000245575 [Eh]
    Disp20 (OS)         =    -0.000000245575 [Eh]
    Exch-Disp20         =     0.000000000000 [Eh]
    Exch-Disp20 (SS)    =     0.000000000000 [Eh]
    Exch-Disp20 (OS)    =     0.000000000000 [Eh]

    SAPT Results 
  --------------------------------------------------------------------------------------------------------
    Electrostatics                  0.02173759 [mEh]       0.01364054 [kcal/mol]       0.05707203 [kJ/mol]
      Elst10,r                      0.02173759 [mEh]       0.01364054 [kcal/mol]       0.05707203 [kJ/mol]

    Exchange                       -0.00000000 [mEh]      -0.00000000 [kcal/mol]      -0.00000000 [kJ/mol]
      Exch10                       -0.00000000 [mEh]      -0.00000000 [kcal/mol]      -0.00000000 [kJ/mol]
      Exch10(S^2)                  -0.00000000 [mEh]      -0.00000000 [kcal/mol]      -0.00000000 [kJ/mol]

    Induction                      -0.00005007 [mEh]      -0.00003142 [kcal/mol]      -0.00013146 [kJ/mol]
      Ind20,r                      -0.00002783 [mEh]      -0.00001746 [kcal/mol]      -0.00007306 [kJ/mol]
      Exch-Ind20,r                  0.00000000 [mEh]       0.00000000 [kcal/mol]       0.00000000 [kJ/mol]
      delta HF,r (2)               -0.00002224 [mEh]      -0.00001396 [kcal/mol]      -0.00005839 [kJ/mol]

    Dispersion                     -0.00049115 [mEh]      -0.00030820 [kcal/mol]      -0.00128952 [kJ/mol]
      Disp20                       -0.00049115 [mEh]      -0.00030820 [kcal/mol]      -0.00128952 [kJ/mol]
      Exch-Disp20                   0.00000000 [mEh]       0.00000000 [kcal/mol]       0.00000000 [kJ/mol]
      Disp20 (SS)                  -0.00024558 [mEh]      -0.00015410 [kcal/mol]      -0.00064476 [kJ/mol]
      Disp20 (OS)                  -0.00024558 [mEh]      -0.00015410 [kcal/mol]      -0.00064476 [kJ/mol]
      Exch-Disp20 (SS)              0.00000000 [mEh]       0.00000000 [kcal/mol]       0.00000000 [kJ/mol]
      Exch-Disp20 (OS)              0.00000000 [mEh]       0.00000000 [kcal/mol]       0.00000000 [kJ/mol]

  Total HF                          0.02168752 [mEh]       0.01360912 [kcal/mol]       0.05694057 [kJ/mol]
  Total SAPT0                       0.02119637 [mEh]       0.01330092 [kcal/mol]       0.05565106 [kJ/mol]

  Special recipe for scaled SAPT0 (see Manual):
    Electrostatics sSAPT0           0.02173759 [mEh]       0.01364054 [kcal/mol]       0.05707203 [kJ/mol]
    Exchange sSAPT0                -0.00000000 [mEh]      -0.00000000 [kcal/mol]      -0.00000000 [kJ/mol]
    Induction sSAPT0               -0.00005007 [mEh]      -0.00003142 [kcal/mol]      -0.00013146 [kJ/mol]
    Dispersion sSAPT0              -0.00049115 [mEh]      -0.00030820 [kcal/mol]      -0.00128952 [kJ/mol]
  Total sSAPT0                      0.02119637 [mEh]       0.01330092 [kcal/mol]       0.05565106 [kJ/mol]
  --------------------------------------------------------------------------------------------------------

*** tstop() called on ds1 at Wed Sep  1 14:18:08 2021
Module time:
	user time   =      27.21 seconds =       0.45 minutes
	system time =       2.38 seconds =       0.04 minutes
	total time  =          5 seconds =       0.08 minutes
Total time:
	user time   =      64.00 seconds =       1.07 minutes
	system time =       3.19 seconds =       0.05 minutes
	total time  =         14 seconds =       0.23 minutes


Warning! sapt0 does not have an associated derived wavefunction.The returned wavefunction is the dimer SCF wavefunction.


    Psi4 stopped on: Wednesday, 01 September 2021 02:18PM
    Psi4 wall time for execution: 0:00:13.83

*** Psi4 exiting successfully. Buy a developer a beer!
