
    -----------------------------------------------------------------------
          Psi4: An Open-Source Ab Initio Electronic Structure Package
                               Psi4 1.4rc3 

                         Git: Rev {HEAD} 080dba6 


    D. G. A. Smith, L. A. Burns, A. C. Simmonett, R. M. Parrish,
    M. C. Schieber, R. Galvelis, P. Kraus, H. Kruse, R. Di Remigio,
    A. Alenaizan, A. M. James, S. Lehtola, J. P. Misiewicz, M. Scheurer,
    R. A. Shaw, J. B. Schriber, Y. Xie, Z. L. Glick, D. A. Sirianni,
    J. S. O'Brien, J. M. Waldrop, A. Kumar, E. G. Hohenstein,
    B. P. Pritchard, B. R. Brooks, H. F. Schaefer III, A. Yu. Sokolov,
    K. Patkowski, A. E. DePrince III, U. Bozkaya, R. A. King,
    F. A. Evangelista, J. M. Turney, T. D. Crawford, C. D. Sherrill,
    J. Chem. Phys. 152(18) 184108 (2020). https://doi.org/10.1063/5.0006002

                            Additional Code Authors
    E. T. Seidl, C. L. Janssen, E. F. Valeev, M. L. Leininger,
    J. F. Gonthier, R. M. Richard, H. R. McAlexander, M. Saitow, X. Wang,
    P. Verma, and M. H. Lechner

             Previous Authors, Complete List of Code Contributors,
                       and Citations for Specific Modules
    https://github.com/psi4/psi4/blob/master/codemeta.json
    https://github.com/psi4/psi4/graphs/contributors
    http://psicode.org/psi4manual/master/introduction.html#citing-psifour

    -----------------------------------------------------------------------


    Psi4 started on: Wednesday, 01 September 2021 02:19PM

    Process ID: 21367
    Host:       ds1
    PSIDATADIR: /theoryfs2/ds/csargent/miniconda3/envs/cle/share/psi4
    Memory:     500.0 MiB
    Threads:    6
    
  ==> Input File <==

--------------------------------------------------------------------------
# PSI4 file produced by CrystaLattE

# Generated from:               acetic_acid.xyz
# Psithon input for N-mer:      2mer-0+334
# Number of atoms per monomer:  [8, 8]
# Number of replicas:           2
# COM priority:                 2.160428105185e-05
# Minimum COM separations:      19.000 
# Separation priority:          3.841583530727e-05
# Minimum monomer separations:  15.683 
# Cutoff priority:              1.296224943679e-06
# Nuclear repulsion energy:     272.0491284579889

memory 7 GB

molecule Dimer_0_334 {
  O           -5.53102237       2.93940290       1.97762624 
  O           -2.40708886       0.90817734       0.04905909 
  H           -0.50304887       1.37579205       4.63880908 
  H            0.00000000       4.25104285       3.09072238 
  H           -2.38948215       4.01916779       5.40195041 
  H           -3.74771411       0.47147930      -1.21557512 
  C           -1.41859782       2.98500500       3.84405190 
  C           -3.32263781       2.28628814       1.91221413 
--
  O          -30.68346607     -20.24810357      -8.92439275 
  O          -27.55953256     -22.27932914     -10.85295990 
  H          -25.65549258     -21.81171443      -6.26320991 
  H          -25.15244370     -18.93646362      -7.81129661 
  H          -27.54192585     -19.16833869      -5.50006858 
  H          -28.90015781     -22.71602718     -12.11759411 
  C          -26.57104153     -20.20250148      -7.05796709 
  C          -28.47508152     -20.90121834      -8.98980486 
units = au
no_com
no_reorient
}

set {
  e_convergence 10
  d_convergence 10
  scf_type df
  mp2_type df
  cc_type df
  freeze_core true
}

energy('sapt0/aug-cc-pvdz')

--------------------------------------------------------------------------

  Memory set to   6.519 GiB by Python driver.

Scratch directory: /scratch/csargent/psi4.17562.33784/

Scratch directory: /scratch/csargent/psi4.17562.33784/

  //>>>>>>>>>>>>>>>>>>>>>>>>>>>>>>>>>>>//
  //              Dimer HF             //
  //<<<<<<<<<<<<<<<<<<<<<<<<<<<<<<<<<<<//


*** tstart() called on ds1
*** at Wed Sep  1 14:19:25 2021

   => Loading Basis Set <=

    Name: AUG-CC-PVDZ
    Role: ORBITAL
    Keyword: BASIS
    atoms 1-2, 9-10  entry O          line   254 file /theoryfs2/ds/csargent/miniconda3/envs/cle/share/psi4/basis/aug-cc-pvdz.gbs 
    atoms 3-6, 11-14 entry H          line    40 file /theoryfs2/ds/csargent/miniconda3/envs/cle/share/psi4/basis/aug-cc-pvdz.gbs 
    atoms 7-8, 15-16 entry C          line   182 file /theoryfs2/ds/csargent/miniconda3/envs/cle/share/psi4/basis/aug-cc-pvdz.gbs 


         ---------------------------------------------------------
                                   SCF
               by Justin Turney, Rob Parrish, Andy Simmonett
                          and Daniel G. A. Smith
                              RHF Reference
                        6 Threads,   6675 MiB Core
         ---------------------------------------------------------

  ==> Geometry <==

    Molecular point group: c1
    Full point group: C1

    Geometry (in Bohr), charge = 0, multiplicity = 1:

       Center              X                  Y                   Z               Mass       
    ------------   -----------------  -----------------  -----------------  -----------------
         O           -5.531022370000     2.939402900000     1.977626240000    15.994914619570
         O           -2.407088860000     0.908177340000     0.049059090000    15.994914619570
         H           -0.503048870000     1.375792050000     4.638809080000     1.007825032230
         H            0.000000000000     4.251042850000     3.090722380000     1.007825032230
         H           -2.389482150000     4.019167790000     5.401950410000     1.007825032230
         H           -3.747714110000     0.471479300000    -1.215575120000     1.007825032230
         C           -1.418597820000     2.985005000000     3.844051900000    12.000000000000
         C           -3.322637810000     2.286288140000     1.912214130000    12.000000000000
         O          -30.683466070000   -20.248103570000    -8.924392750000    15.994914619570
         O          -27.559532560000   -22.279329140000   -10.852959900000    15.994914619570
         H          -25.655492580000   -21.811714430000    -6.263209910000     1.007825032230
         H          -25.152443700000   -18.936463620000    -7.811296610000     1.007825032230
         H          -27.541925850000   -19.168338690000    -5.500068580000     1.007825032230
         H          -28.900157810000   -22.716027180000   -12.117594110000     1.007825032230
         C          -26.571041530000   -20.202501480000    -7.057967090000    12.000000000000
         C          -28.475081520000   -20.901218340000    -8.989804860000    12.000000000000

  Running in c1 symmetry.

  Rotational constants: A =      0.03999  B =      0.00075  C =      0.00074 [cm^-1]
  Rotational constants: A =   1198.99680  B =     22.62697  C =     22.26996 [MHz]
  Nuclear repulsion =  272.049128520084480

  Charge       = 0
  Multiplicity = 1
  Electrons    = 64
  Nalpha       = 32
  Nbeta        = 32

  ==> Algorithm <==

  SCF Algorithm Type is DF.
  DIIS enabled.
  MOM disabled.
  Fractional occupation disabled.
  Guess Type is SAD.
  Energy threshold   = 1.00e-10
  Density threshold  = 1.00e-10
  Integral threshold = 1.00e-12

  ==> Primary Basis <==

  Basis Set: AUG-CC-PVDZ
    Blend: AUG-CC-PVDZ
    Number of shells: 112
    Number of basis functions: 256
    Number of Cartesian functions: 272
    Spherical Harmonics?: true
    Max angular momentum: 2

   => Loading Basis Set <=

    Name: (AUG-CC-PVDZ AUX)
    Role: JKFIT
    Keyword: DF_BASIS_SCF
    atoms 1-2, 9-10  entry O          line   270 file /theoryfs2/ds/csargent/miniconda3/envs/cle/share/psi4/basis/aug-cc-pvdz-jkfit.gbs 
    atoms 3-6, 11-14 entry H          line    70 file /theoryfs2/ds/csargent/miniconda3/envs/cle/share/psi4/basis/aug-cc-pvdz-jkfit.gbs 
    atoms 7-8, 15-16 entry C          line   154 file /theoryfs2/ds/csargent/miniconda3/envs/cle/share/psi4/basis/aug-cc-pvdz-jkfit.gbs 

  ==> Integral Setup <==

  ==> DiskDFJK: Density-Fitted J/K Matrices <==

    J tasked:                  Yes
    K tasked:                  Yes
    wK tasked:                  No
    OpenMP threads:              6
    Integrals threads:           6
    Memory [MiB]:             5006
    Algorithm:                Core
    Integral Cache:           SAVE
    Schwarz Cutoff:          1E-12
    Fitting Condition:       1E-10

   => Auxiliary Basis Set <=

  Basis Set: (AUG-CC-PVDZ AUX)
    Blend: AUG-CC-PVDZ-JKFIT
    Number of shells: 320
    Number of basis functions: 944
    Number of Cartesian functions: 1088
    Spherical Harmonics?: true
    Max angular momentum: 3

  Minimum eigenvalue in the overlap matrix is 1.0277397904E-04.
  Reciprocal condition number of the overlap matrix is 9.6537769379E-06.
    Using symmetric orthogonalization.

  ==> Pre-Iterations <==

  SCF Guess: Superposition of Atomic Densities via on-the-fly atomic UHF (no occupation information).

   -------------------------
    Irrep   Nso     Nmo    
   -------------------------
     A        256     256 
   -------------------------
    Total     256     256
   -------------------------

  ==> Iterations <==

                           Total Energy        Delta E     RMS |[F,P]|

   @DF-RHF iter SAD:  -453.97985886063731   -4.53980e+02   0.00000e+00 
   @DF-RHF iter   1:  -455.36179828310867   -1.38194e+00   3.22745e-03 DIIS
   @DF-RHF iter   2:  -455.60180612198661   -2.40008e-01   1.87366e-03 DIIS
   @DF-RHF iter   3:  -455.68263010952433   -8.08240e-02   3.30397e-04 DIIS
   @DF-RHF iter   4:  -455.68710399367671   -4.47388e-03   1.46172e-04 DIIS
   @DF-RHF iter   5:  -455.68806613141794   -9.62138e-04   3.42513e-05 DIIS
   @DF-RHF iter   6:  -455.68814048826528   -7.43568e-05   1.66596e-05 DIIS
   @DF-RHF iter   7:  -455.68816006881792   -1.95806e-05   5.43469e-06 DIIS
   @DF-RHF iter   8:  -455.68816323178470   -3.16297e-06   1.43657e-06 DIIS
   @DF-RHF iter   9:  -455.68816346510988   -2.33325e-07   3.01262e-07 DIIS
   @DF-RHF iter  10:  -455.68816347275668   -7.64680e-09   7.94536e-08 DIIS
   @DF-RHF iter  11:  -455.68816347316482   -4.08136e-10   2.54877e-08 DIIS
   @DF-RHF iter  12:  -455.68816347320848   -4.36557e-11   6.04940e-09 DIIS
   @DF-RHF iter  13:  -455.68816347321183   -3.35376e-12   1.34931e-09 DIIS
   @DF-RHF iter  14:  -455.68816347321172    1.13687e-13   6.49549e-10 DIIS
   @DF-RHF iter  15:  -455.68816347321206   -3.41061e-13   2.08708e-10 DIIS
   @DF-RHF iter  16:  -455.68816347321200    5.68434e-14   5.73706e-11 DIIS
  Energy and wave function converged.


  ==> Post-Iterations <==

    Orbital Energies [Eh]
    ---------------------

    Doubly Occupied:                                                      

       1A    -20.629860     2A    -20.629283     3A    -20.553163  
       4A    -20.552582     5A    -11.396465     6A    -11.395887  
       7A    -11.251308     8A    -11.250743     9A     -1.476229  
      10A     -1.475651    11A     -1.357851    12A     -1.357270  
      13A     -1.033340    14A     -1.032771    15A     -0.838300  
      16A     -0.837726    17A     -0.703430    18A     -0.702851  
      19A     -0.688821    20A     -0.688249    21A     -0.658110  
      22A     -0.657537    23A     -0.576898    24A     -0.576325  
      25A     -0.570045    26A     -0.569478    27A     -0.561735  
      28A     -0.561165    29A     -0.475708    30A     -0.475126  
      31A     -0.452790    32A     -0.452210  

    Virtual:                                                              

      33A      0.031831    34A      0.032391    35A      0.045222  
      36A      0.045824    37A      0.054758    38A      0.055276  
      39A      0.064378    40A      0.064970    41A      0.098424  
      42A      0.099011    43A      0.116945    44A      0.117499  
      45A      0.117529    46A      0.118068    47A      0.140177  
      48A      0.140758    49A      0.151630    50A      0.152158  
      51A      0.156034    52A      0.156614    53A      0.164251  
      54A      0.164828    55A      0.170966    56A      0.171541  
      57A      0.195953    58A      0.196525    59A      0.208830  
      60A      0.209413    61A      0.233007    62A      0.233565  
      63A      0.234604    64A      0.235183    65A      0.270519  
      66A      0.271094    67A      0.289940    68A      0.290519  
      69A      0.295457    70A      0.296015    71A      0.319444  
      72A      0.320031    73A      0.322418    74A      0.323005  
      75A      0.346933    76A      0.347502    77A      0.370299  
      78A      0.370882    79A      0.378523    80A      0.379086  
      81A      0.393770    82A      0.394342    83A      0.401078  
      84A      0.401651    85A      0.426344    86A      0.426891  
      87A      0.437860    88A      0.438442    89A      0.441674  
      90A      0.442231    91A      0.475178    92A      0.475759  
      93A      0.492011    94A      0.492576    95A      0.524428  
      96A      0.524990    97A      0.536929    98A      0.537509  
      99A      0.553139   100A      0.553705   101A      0.569407  
     102A      0.569985   103A      0.583456   104A      0.584024  
     105A      0.601724   106A      0.602301   107A      0.617875  
     108A      0.618453   109A      0.639954   110A      0.640523  
     111A      0.648960   112A      0.649527   113A      0.666352  
     114A      0.666918   115A      0.683863   116A      0.684443  
     117A      0.696847   118A      0.697418   119A      0.703238  
     120A      0.703803   121A      0.732938   122A      0.733506  
     123A      0.742404   124A      0.742972   125A      0.798129  
     126A      0.798697   127A      0.853222   128A      0.853798  
     129A      0.876469   130A      0.877049   131A      0.912044  
     132A      0.912622   133A      0.949338   134A      0.949910  
     135A      0.954015   136A      0.954593   137A      0.982784  
     138A      0.983358   139A      1.041180   140A      1.041755  
     141A      1.088485   142A      1.089054   143A      1.101504  
     144A      1.102065   145A      1.118023   146A      1.118597  
     147A      1.157145   148A      1.157724   149A      1.171774  
     150A      1.172346   151A      1.176004   152A      1.176577  
     153A      1.235664   154A      1.236228   155A      1.271823  
     156A      1.272404   157A      1.318869   158A      1.319454  
     159A      1.357826   160A      1.358404   161A      1.390091  
     162A      1.390671   163A      1.412108   164A      1.412679  
     165A      1.462427   166A      1.463008   167A      1.467600  
     168A      1.468180   169A      1.545674   170A      1.546244  
     171A      1.634691   172A      1.635263   173A      1.649552  
     174A      1.650130   175A      1.714744   176A      1.715318  
     177A      1.755451   178A      1.756023   179A      1.772549  
     180A      1.773114   181A      1.847685   182A      1.848265  
     183A      1.865158   184A      1.865727   185A      1.883481  
     186A      1.884043   187A      1.966089   188A      1.966660  
     189A      1.979090   190A      1.979672   191A      2.025952  
     192A      2.026524   193A      2.037281   194A      2.037858  
     195A      2.122488   196A      2.123065   197A      2.171694  
     198A      2.172264   199A      2.192788   200A      2.193359  
     201A      2.244434   202A      2.245005   203A      2.253290  
     204A      2.253863   205A      2.272002   206A      2.272578  
     207A      2.311888   208A      2.312465   209A      2.379261  
     210A      2.379827   211A      2.429964   212A      2.430542  
     213A      2.438318   214A      2.438887   215A      2.535957  
     216A      2.536526   217A      2.623231   218A      2.623806  
     219A      2.651975   220A      2.652543   221A      2.783338  
     222A      2.783913   223A      2.833297   224A      2.833867  
     225A      2.885783   226A      2.886349   227A      2.973932  
     228A      2.974503   229A      3.001252   230A      3.001820  
     231A      3.015962   232A      3.016535   233A      3.178572  
     234A      3.179145   235A      3.345763   236A      3.346342  
     237A      3.666325   238A      3.666900   239A      3.690042  
     240A      3.690618   241A      3.736068   242A      3.736646  
     243A      3.759300   244A      3.759883   245A      3.789957  
     246A      3.790538   247A      3.804889   248A      3.805471  
     249A      3.900044   250A      3.900623   251A      4.050003  
     252A      4.050583   253A      4.141975   254A      4.142557  
     255A      4.309571   256A      4.310148  

    Final Occupation by Irrep:
              A 
    DOCC [    32 ]

  @DF-RHF Final Energy:  -455.68816347321200

   => Energetics <=

    Nuclear Repulsion Energy =            272.0491285200844800
    One-Electron Energy =               -1162.5967695813928913
    Two-Electron Energy =                 434.8594775880964676
    Total Energy =                       -455.6881634732120006

Computation Completed


Properties will be evaluated at   0.000000,   0.000000,   0.000000 [a0]

Properties computed using the SCF density matrix

  Nuclear Dipole Moment: [e a0]
     X: -1002.0633      Y:  -596.9484      Z:  -223.5306

  Electronic Dipole Moment: [e a0]
     X:  1003.7193      Y:   596.3839      Z:   223.3649

  Dipole Moment: [e a0]
     X:     1.6560      Y:    -0.5646      Z:    -0.1657     Total:     1.7574

  Dipole Moment: [D]
     X:     4.2091      Y:    -1.4350      Z:    -0.4212     Total:     4.4669


*** tstop() called on ds1 at Wed Sep  1 14:19:28 2021
Module time:
	user time   =      14.65 seconds =       0.24 minutes
	system time =       0.38 seconds =       0.01 minutes
	total time  =          3 seconds =       0.05 minutes
Total time:
	user time   =      14.65 seconds =       0.24 minutes
	system time =       0.38 seconds =       0.01 minutes
	total time  =          3 seconds =       0.05 minutes

  //>>>>>>>>>>>>>>>>>>>>>>>>>>>>>>>>>>>//
  //            Monomer A HF           //
  //<<<<<<<<<<<<<<<<<<<<<<<<<<<<<<<<<<<//


*** tstart() called on ds1
*** at Wed Sep  1 14:19:28 2021

   => Loading Basis Set <=

    Name: AUG-CC-PVDZ
    Role: ORBITAL
    Keyword: BASIS
    atoms 1-2, 9-10  entry O          line   254 file /theoryfs2/ds/csargent/miniconda3/envs/cle/share/psi4/basis/aug-cc-pvdz.gbs 
    atoms 3-6, 11-14 entry H          line    40 file /theoryfs2/ds/csargent/miniconda3/envs/cle/share/psi4/basis/aug-cc-pvdz.gbs 
    atoms 7-8, 15-16 entry C          line   182 file /theoryfs2/ds/csargent/miniconda3/envs/cle/share/psi4/basis/aug-cc-pvdz.gbs 


         ---------------------------------------------------------
                                   SCF
               by Justin Turney, Rob Parrish, Andy Simmonett
                          and Daniel G. A. Smith
                              RHF Reference
                        6 Threads,   6675 MiB Core
         ---------------------------------------------------------

  ==> Geometry <==

    Molecular point group: c1
    Full point group: C1

    Geometry (in Bohr), charge = 0, multiplicity = 1:

       Center              X                  Y                   Z               Mass       
    ------------   -----------------  -----------------  -----------------  -----------------
         O           -5.531022370000     2.939402900000     1.977626240000    15.994914619570
         O           -2.407088860000     0.908177340000     0.049059090000    15.994914619570
         H           -0.503048870000     1.375792050000     4.638809080000     1.007825032230
         H            0.000000000000     4.251042850000     3.090722380000     1.007825032230
         H           -2.389482150000     4.019167790000     5.401950410000     1.007825032230
         H           -3.747714110000     0.471479300000    -1.215575120000     1.007825032230
         C           -1.418597820000     2.985005000000     3.844051900000    12.000000000000
         C           -3.322637810000     2.286288140000     1.912214130000    12.000000000000
      Gh(O)         -30.683466070000   -20.248103570000    -8.924392750000    15.994914619570
      Gh(O)         -27.559532560000   -22.279329140000   -10.852959900000    15.994914619570
      Gh(H)         -25.655492580000   -21.811714430000    -6.263209910000     1.007825032230
      Gh(H)         -25.152443700000   -18.936463620000    -7.811296610000     1.007825032230
      Gh(H)         -27.541925850000   -19.168338690000    -5.500068580000     1.007825032230
      Gh(H)         -28.900157810000   -22.716027180000   -12.117594110000     1.007825032230
      Gh(C)         -26.571041530000   -20.202501480000    -7.057967090000    12.000000000000
      Gh(C)         -28.475081520000   -20.901218340000    -8.989804860000    12.000000000000

  Running in c1 symmetry.

  Rotational constants: A =      0.03999  B =      0.00075  C =      0.00074 [cm^-1]
  Rotational constants: A =   1198.99680  B =     22.62697  C =     22.26996 [MHz]
  Nuclear repulsion =  121.748430210971620

  Charge       = 0
  Multiplicity = 1
  Electrons    = 32
  Nalpha       = 16
  Nbeta        = 16

  ==> Algorithm <==

  SCF Algorithm Type is DF.
  DIIS enabled.
  MOM disabled.
  Fractional occupation disabled.
  Guess Type is SAD.
  Energy threshold   = 1.00e-10
  Density threshold  = 1.00e-10
  Integral threshold = 1.00e-12

  ==> Primary Basis <==

  Basis Set: AUG-CC-PVDZ
    Blend: AUG-CC-PVDZ
    Number of shells: 112
    Number of basis functions: 256
    Number of Cartesian functions: 272
    Spherical Harmonics?: true
    Max angular momentum: 2

   => Loading Basis Set <=

    Name: (AUG-CC-PVDZ AUX)
    Role: JKFIT
    Keyword: DF_BASIS_SCF
    atoms 1-2, 9-10  entry O          line   270 file /theoryfs2/ds/csargent/miniconda3/envs/cle/share/psi4/basis/aug-cc-pvdz-jkfit.gbs 
    atoms 3-6, 11-14 entry H          line    70 file /theoryfs2/ds/csargent/miniconda3/envs/cle/share/psi4/basis/aug-cc-pvdz-jkfit.gbs 
    atoms 7-8, 15-16 entry C          line   154 file /theoryfs2/ds/csargent/miniconda3/envs/cle/share/psi4/basis/aug-cc-pvdz-jkfit.gbs 

  ==> Integral Setup <==

  ==> DiskDFJK: Density-Fitted J/K Matrices <==

    J tasked:                  Yes
    K tasked:                  Yes
    wK tasked:                  No
    OpenMP threads:              6
    Integrals threads:           6
    Memory [MiB]:             5006
    Algorithm:                Core
    Integral Cache:           LOAD
    Schwarz Cutoff:          1E-12
    Fitting Condition:       1E-10

   => Auxiliary Basis Set <=

  Basis Set: (AUG-CC-PVDZ AUX)
    Blend: AUG-CC-PVDZ-JKFIT
    Number of shells: 320
    Number of basis functions: 944
    Number of Cartesian functions: 1088
    Spherical Harmonics?: true
    Max angular momentum: 3

  Minimum eigenvalue in the overlap matrix is 1.0277397904E-04.
  Reciprocal condition number of the overlap matrix is 9.6537769379E-06.
    Using symmetric orthogonalization.

  ==> Pre-Iterations <==

  SCF Guess: Superposition of Atomic Densities via on-the-fly atomic UHF (no occupation information).

   -------------------------
    Irrep   Nso     Nmo    
   -------------------------
     A        256     256 
   -------------------------
    Total     256     256
   -------------------------

  ==> Iterations <==

                           Total Energy        Delta E     RMS |[F,P]|

   @DF-RHF iter SAD:  -226.98992942901583   -2.26990e+02   0.00000e+00 
   @DF-RHF iter   1:  -227.68091168165333   -6.90982e-01   2.28211e-03 DIIS
   @DF-RHF iter   2:  -227.80091445461059   -1.20003e-01   1.32478e-03 DIIS
   @DF-RHF iter   3:  -227.84131987378709   -4.04054e-02   2.33581e-04 DIIS
   @DF-RHF iter   4:  -227.84355633732412   -2.23646e-03   1.03339e-04 DIIS
   @DF-RHF iter   5:  -227.84403723832605   -4.80901e-04   2.42136e-05 DIIS
   @DF-RHF iter   6:  -227.84407440632287   -3.71680e-05   1.17797e-05 DIIS
   @DF-RHF iter   7:  -227.84408419444952   -9.78813e-06   3.84272e-06 DIIS
   @DF-RHF iter   8:  -227.84408577603560   -1.58159e-06   1.01577e-06 DIIS
   @DF-RHF iter   9:  -227.84408589268628   -1.16651e-07   2.12954e-07 DIIS
   @DF-RHF iter  10:  -227.84408589650684   -3.82056e-09   5.61608e-08 DIIS
   @DF-RHF iter  11:  -227.84408589671042   -2.03585e-10   1.80147e-08 DIIS
   @DF-RHF iter  12:  -227.84408589673265   -2.22258e-11   4.26466e-09 DIIS
   @DF-RHF iter  13:  -227.84408589673401   -1.36424e-12   8.93569e-10 DIIS
   @DF-RHF iter  14:  -227.84408589673401    0.00000e+00   2.86710e-10 DIIS
   @DF-RHF iter  15:  -227.84408589673441   -3.97904e-13   1.08058e-10 DIIS
   @DF-RHF iter  16:  -227.84408589673436    5.68434e-14   2.86097e-11 DIIS
  Energy and wave function converged.


  ==> Post-Iterations <==

    Orbital Energies [Eh]
    ---------------------

    Doubly Occupied:                                                      

       1A    -20.629476     2A    -20.552804     3A    -11.396108  
       4A    -11.250979     5A     -1.475853     6A     -1.357486  
       7A     -1.032999     8A     -0.837930     9A     -0.703065  
      10A     -0.688465    11A     -0.657749    12A     -0.576538  
      13A     -0.569697    14A     -0.561403    15A     -0.475343  
      16A     -0.452434  

    Virtual:                                                              

      17A      0.024982    18A      0.032214    19A      0.045627  
      20A      0.047063    21A      0.055084    22A      0.055731  
      23A      0.056762    24A      0.064645    25A      0.085653  
      26A      0.098769    27A      0.104777    28A      0.112408  
      29A      0.117323    30A      0.117615    31A      0.117857  
      32A      0.140545    33A      0.140643    34A      0.141582  
      35A      0.147098    36A      0.151976    37A      0.156356  
      38A      0.164577    39A      0.171320    40A      0.176585  
      41A      0.196303    42A      0.205812    43A      0.209237  
      44A      0.214796    45A      0.226493    46A      0.233376  
      47A      0.234963    48A      0.244285    49A      0.260493  
      50A      0.265012    51A      0.270849    52A      0.276921  
      53A      0.285653    54A      0.290295    55A      0.295802  
      56A      0.319834    57A      0.322781    58A      0.332523  
      59A      0.336453    60A      0.347275    61A      0.369710  
      62A      0.370652    63A      0.378870    64A      0.394119  
      65A      0.399540    66A      0.401429    67A      0.410009  
      68A      0.426690    69A      0.431381    70A      0.438141  
      71A      0.438218    72A      0.442006    73A      0.460642  
      74A      0.475555    75A      0.490449    76A      0.492357  
      77A      0.497512    78A      0.516756    79A      0.524763  
      80A      0.537262    81A      0.541961    82A      0.543820  
      83A      0.553487    84A      0.559868    85A      0.569740  
      86A      0.583791    87A      0.587030    88A      0.602101  
      89A      0.616539    90A      0.618231    91A      0.636483  
      92A      0.637300    93A      0.640311    94A      0.649301  
      95A      0.666705    96A      0.675358    97A      0.684210  
      98A      0.690192    99A      0.697190   100A      0.701063  
     101A      0.703571   102A      0.728361   103A      0.733289  
     104A      0.742748   105A      0.753888   106A      0.760567  
     107A      0.787378   108A      0.798460   109A      0.816014  
     110A      0.820352   111A      0.848465   112A      0.853581  
     113A      0.876833   114A      0.888453   115A      0.896631  
     116A      0.912403   117A      0.947857   118A      0.949697  
     119A      0.954375   120A      0.958349   121A      0.976141  
     122A      0.983144   123A      1.038198   124A      1.041547  
     125A      1.045420   126A      1.088819   127A      1.101839  
     128A      1.106645   129A      1.118367   130A      1.157520  
     131A      1.162791   132A      1.172141   133A      1.176359  
     134A      1.191093   135A      1.236033   136A      1.260866  
     137A      1.270461   138A      1.272187   139A      1.319230  
     140A      1.329789   141A      1.358181   142A      1.384322  
     143A      1.390440   144A      1.396464   145A      1.412451  
     146A      1.434909   147A      1.458556   148A      1.462795  
     149A      1.467862   150A      1.467976   151A      1.469736  
     152A      1.537763   153A      1.546014   154A      1.569518  
     155A      1.635048   156A      1.649915   157A      1.683925  
     158A      1.715101   159A      1.717707   160A      1.755800  
     161A      1.772884   162A      1.800208   163A      1.848039  
     164A      1.865503   165A      1.883142   166A      1.883811  
     167A      1.937283   168A      1.966454   169A      1.979453  
     170A      2.026298   171A      2.037642   172A      2.071041  
     173A      2.122848   174A      2.172049   175A      2.193137  
     176A      2.244771   177A      2.251190   178A      2.253643  
     179A      2.265212   180A      2.272354   181A      2.274186  
     182A      2.303255   183A      2.312246   184A      2.336888  
     185A      2.339385   186A      2.362390   187A      2.376801  
     188A      2.379604   189A      2.430330   190A      2.438663  
     191A      2.467418   192A      2.506082   193A      2.536303  
     194A      2.586260   195A      2.623585   196A      2.652307  
     197A      2.664953   198A      2.698602   199A      2.754642  
     200A      2.783681   201A      2.786497   202A      2.824519  
     203A      2.833647   204A      2.886121   205A      2.916269  
     206A      2.974291   207A      3.001602   208A      3.016316  
     209A      3.043018   210A      3.178935   211A      3.182754  
     212A      3.278915   213A      3.311027   214A      3.346124  
     215A      3.357211   216A      3.431835   217A      3.487053  
     218A      3.663121   219A      3.666705   220A      3.690423  
     221A      3.736441   222A      3.740406   223A      3.759662  
     224A      3.790324   225A      3.805251   226A      3.900417  
     227A      4.026476   228A      4.050368   229A      4.142340  
     230A      4.153996   231A      4.309953   232A      4.505328  
     233A      4.617248   234A      4.725305   235A      4.926297  
     236A      4.970139   237A      4.978362   238A      5.002070  
     239A      5.017230   240A      5.034094   241A      5.052876  
     242A      5.222400   243A      5.244588   244A      5.615566  
     245A      5.661588   246A      5.791704   247A      5.869449  
     248A      6.053200   249A      6.229273   250A      6.521148  
     251A      6.790651   252A      7.093364   253A     18.346653  
     254A     18.941153   255A     33.525965   256A     33.563939  

    Final Occupation by Irrep:
              A 
    DOCC [    16 ]

  @DF-RHF Final Energy:  -227.84408589673436

   => Energetics <=

    Nuclear Repulsion Energy =            121.7484302109716197
    One-Electron Energy =                -552.7483714435090860
    Two-Electron Energy =                 203.1558553358031247
    Total Energy =                       -227.8440858967343559

Computation Completed


Properties will be evaluated at   0.000000,   0.000000,   0.000000 [a0]

Properties computed using the SCF density matrix

  Nuclear Dipole Moment: [e a0]
     X:   -98.5925      Y:    72.5259      Z:    62.6670

  Electronic Dipole Moment: [e a0]
     X:    99.4206      Y:   -72.8088      Z:   -62.7502

  Dipole Moment: [e a0]
     X:     0.8281      Y:    -0.2829      Z:    -0.0832     Total:     0.8790

  Dipole Moment: [D]
     X:     2.1048      Y:    -0.7191      Z:    -0.2116     Total:     2.2342


*** tstop() called on ds1 at Wed Sep  1 14:19:30 2021
Module time:
	user time   =      10.69 seconds =       0.18 minutes
	system time =       0.19 seconds =       0.00 minutes
	total time  =          2 seconds =       0.03 minutes
Total time:
	user time   =      25.53 seconds =       0.43 minutes
	system time =       0.58 seconds =       0.01 minutes
	total time  =          5 seconds =       0.08 minutes

  //>>>>>>>>>>>>>>>>>>>>>>>>>>>>>>>>>>>//
  //            Monomer B HF           //
  //<<<<<<<<<<<<<<<<<<<<<<<<<<<<<<<<<<<//


*** tstart() called on ds1
*** at Wed Sep  1 14:19:30 2021

   => Loading Basis Set <=

    Name: AUG-CC-PVDZ
    Role: ORBITAL
    Keyword: BASIS
    atoms 1-2, 9-10  entry O          line   254 file /theoryfs2/ds/csargent/miniconda3/envs/cle/share/psi4/basis/aug-cc-pvdz.gbs 
    atoms 3-6, 11-14 entry H          line    40 file /theoryfs2/ds/csargent/miniconda3/envs/cle/share/psi4/basis/aug-cc-pvdz.gbs 
    atoms 7-8, 15-16 entry C          line   182 file /theoryfs2/ds/csargent/miniconda3/envs/cle/share/psi4/basis/aug-cc-pvdz.gbs 


         ---------------------------------------------------------
                                   SCF
               by Justin Turney, Rob Parrish, Andy Simmonett
                          and Daniel G. A. Smith
                              RHF Reference
                        6 Threads,   6675 MiB Core
         ---------------------------------------------------------

  ==> Geometry <==

    Molecular point group: c1
    Full point group: C1

    Geometry (in Bohr), charge = 0, multiplicity = 1:

       Center              X                  Y                   Z               Mass       
    ------------   -----------------  -----------------  -----------------  -----------------
      Gh(O)          -5.531022370000     2.939402900000     1.977626240000    15.994914619570
      Gh(O)          -2.407088860000     0.908177340000     0.049059090000    15.994914619570
      Gh(H)          -0.503048870000     1.375792050000     4.638809080000     1.007825032230
      Gh(H)           0.000000000000     4.251042850000     3.090722380000     1.007825032230
      Gh(H)          -2.389482150000     4.019167790000     5.401950410000     1.007825032230
      Gh(H)          -3.747714110000     0.471479300000    -1.215575120000     1.007825032230
      Gh(C)          -1.418597820000     2.985005000000     3.844051900000    12.000000000000
      Gh(C)          -3.322637810000     2.286288140000     1.912214130000    12.000000000000
         O          -30.683466070000   -20.248103570000    -8.924392750000    15.994914619570
         O          -27.559532560000   -22.279329140000   -10.852959900000    15.994914619570
         H          -25.655492580000   -21.811714430000    -6.263209910000     1.007825032230
         H          -25.152443700000   -18.936463620000    -7.811296610000     1.007825032230
         H          -27.541925850000   -19.168338690000    -5.500068580000     1.007825032230
         H          -28.900157810000   -22.716027180000   -12.117594110000     1.007825032230
         C          -26.571041530000   -20.202501480000    -7.057967090000    12.000000000000
         C          -28.475081520000   -20.901218340000    -8.989804860000    12.000000000000

  Running in c1 symmetry.

  Rotational constants: A =      0.03999  B =      0.00075  C =      0.00074 [cm^-1]
  Rotational constants: A =   1198.99680  B =     22.62697  C =     22.26996 [MHz]
  Nuclear repulsion =  121.748430234528030

  Charge       = 0
  Multiplicity = 1
  Electrons    = 32
  Nalpha       = 16
  Nbeta        = 16

  ==> Algorithm <==

  SCF Algorithm Type is DF.
  DIIS enabled.
  MOM disabled.
  Fractional occupation disabled.
  Guess Type is SAD.
  Energy threshold   = 1.00e-10
  Density threshold  = 1.00e-10
  Integral threshold = 1.00e-12

  ==> Primary Basis <==

  Basis Set: AUG-CC-PVDZ
    Blend: AUG-CC-PVDZ
    Number of shells: 112
    Number of basis functions: 256
    Number of Cartesian functions: 272
    Spherical Harmonics?: true
    Max angular momentum: 2

   => Loading Basis Set <=

    Name: (AUG-CC-PVDZ AUX)
    Role: JKFIT
    Keyword: DF_BASIS_SCF
    atoms 1-2, 9-10  entry O          line   270 file /theoryfs2/ds/csargent/miniconda3/envs/cle/share/psi4/basis/aug-cc-pvdz-jkfit.gbs 
    atoms 3-6, 11-14 entry H          line    70 file /theoryfs2/ds/csargent/miniconda3/envs/cle/share/psi4/basis/aug-cc-pvdz-jkfit.gbs 
    atoms 7-8, 15-16 entry C          line   154 file /theoryfs2/ds/csargent/miniconda3/envs/cle/share/psi4/basis/aug-cc-pvdz-jkfit.gbs 

  ==> Integral Setup <==

  ==> DiskDFJK: Density-Fitted J/K Matrices <==

    J tasked:                  Yes
    K tasked:                  Yes
    wK tasked:                  No
    OpenMP threads:              6
    Integrals threads:           6
    Memory [MiB]:             5006
    Algorithm:                Core
    Integral Cache:           LOAD
    Schwarz Cutoff:          1E-12
    Fitting Condition:       1E-10

   => Auxiliary Basis Set <=

  Basis Set: (AUG-CC-PVDZ AUX)
    Blend: AUG-CC-PVDZ-JKFIT
    Number of shells: 320
    Number of basis functions: 944
    Number of Cartesian functions: 1088
    Spherical Harmonics?: true
    Max angular momentum: 3

  Minimum eigenvalue in the overlap matrix is 1.0277397904E-04.
  Reciprocal condition number of the overlap matrix is 9.6537769379E-06.
    Using symmetric orthogonalization.

  ==> Pre-Iterations <==

  SCF Guess: Superposition of Atomic Densities via on-the-fly atomic UHF (no occupation information).

   -------------------------
    Irrep   Nso     Nmo    
   -------------------------
     A        256     256 
   -------------------------
    Total     256     256
   -------------------------

  ==> Iterations <==

                           Total Energy        Delta E     RMS |[F,P]|

   @DF-RHF iter SAD:  -226.98992943114075   -2.26990e+02   0.00000e+00 
   @DF-RHF iter   1:  -227.68091167847993   -6.90982e-01   2.28211e-03 DIIS
   @DF-RHF iter   2:  -227.80091445193958   -1.20003e-01   1.32478e-03 DIIS
   @DF-RHF iter   3:  -227.84131987104232   -4.04054e-02   2.33581e-04 DIIS
   @DF-RHF iter   4:  -227.84355633455465   -2.23646e-03   1.03339e-04 DIIS
   @DF-RHF iter   5:  -227.84403723555479   -4.80901e-04   2.42136e-05 DIIS
   @DF-RHF iter   6:  -227.84407440355204   -3.71680e-05   1.17797e-05 DIIS
   @DF-RHF iter   7:  -227.84408419167781   -9.78813e-06   3.84272e-06 DIIS
   @DF-RHF iter   8:  -227.84408577326445   -1.58159e-06   1.01577e-06 DIIS
   @DF-RHF iter   9:  -227.84408588991499   -1.16651e-07   2.12953e-07 DIIS
   @DF-RHF iter  10:  -227.84408589373550   -3.82050e-09   5.61608e-08 DIIS
   @DF-RHF iter  11:  -227.84408589393900   -2.03499e-10   1.80147e-08 DIIS
   @DF-RHF iter  12:  -227.84408589396122   -2.22258e-11   4.26466e-09 DIIS
   @DF-RHF iter  13:  -227.84408589396273   -1.50635e-12   8.93569e-10 DIIS
   @DF-RHF iter  14:  -227.84408589396233    3.97904e-13   2.86711e-10 DIIS
   @DF-RHF iter  15:  -227.84408589396241   -8.52651e-14   1.08058e-10 DIIS
   @DF-RHF iter  16:  -227.84408589396278   -3.69482e-13   2.86098e-11 DIIS
  Energy and wave function converged.


  ==> Post-Iterations <==

    Orbital Energies [Eh]
    ---------------------

    Doubly Occupied:                                                      

       1A    -20.629476     2A    -20.552804     3A    -11.396108  
       4A    -11.250979     5A     -1.475853     6A     -1.357486  
       7A     -1.032999     8A     -0.837930     9A     -0.703065  
      10A     -0.688465    11A     -0.657749    12A     -0.576538  
      13A     -0.569697    14A     -0.561403    15A     -0.475343  
      16A     -0.452434  

    Virtual:                                                              

      17A      0.024416    18A      0.032214    19A      0.045627  
      20A      0.046440    21A      0.055083    22A      0.055202  
      23A      0.056216    24A      0.064644    25A      0.085035  
      26A      0.098769    27A      0.104232    28A      0.111832  
      29A      0.117061    30A      0.117323    31A      0.117857  
      32A      0.140039    33A      0.140545    34A      0.141042  
      35A      0.146519    36A      0.151976    37A      0.156356  
      38A      0.164577    39A      0.171320    40A      0.176013  
      41A      0.196303    42A      0.205248    43A      0.209237  
      44A      0.214235    45A      0.225903    46A      0.233376  
      47A      0.234963    48A      0.243698    49A      0.259908  
      50A      0.264449    51A      0.270849    52A      0.276317  
      53A      0.285097    54A      0.290295    55A      0.295802  
      56A      0.319834    57A      0.322781    58A      0.331959  
      59A      0.335899    60A      0.347275    61A      0.369141  
      62A      0.370652    63A      0.378870    64A      0.394119  
      65A      0.398971    66A      0.401429    67A      0.409458  
      68A      0.426690    69A      0.430808    70A      0.437587  
      71A      0.438217    72A      0.442006    73A      0.460059  
      74A      0.475555    75A      0.489873    76A      0.492357  
      77A      0.496943    78A      0.516170    79A      0.524763  
      80A      0.537262    81A      0.541380    82A      0.543247  
      83A      0.553487    84A      0.559297    85A      0.569740  
      86A      0.583791    87A      0.586480    88A      0.602101  
      89A      0.615968    90A      0.618231    91A      0.635906  
      92A      0.636733    93A      0.640311    94A      0.649301  
      95A      0.666705    96A      0.674788    97A      0.684210  
      98A      0.689623    99A      0.697190   100A      0.700493  
     101A      0.703571   102A      0.727804   103A      0.733289  
     104A      0.742748   105A      0.753308   106A      0.759999  
     107A      0.786819   108A      0.798460   109A      0.815459  
     110A      0.819787   111A      0.847910   112A      0.853581  
     113A      0.876833   114A      0.887877   115A      0.896064  
     116A      0.912403   117A      0.947286   118A      0.949697  
     119A      0.954375   120A      0.957779   121A      0.975568  
     122A      0.983144   123A      1.037621   124A      1.041547  
     125A      1.044844   126A      1.088819   127A      1.101839  
     128A      1.106069   129A      1.118367   130A      1.157520  
     131A      1.162212   132A      1.172141   133A      1.176359  
     134A      1.190519   135A      1.236033   136A      1.260282  
     137A      1.269877   138A      1.272187   139A      1.319230  
     140A      1.329212   141A      1.358181   142A      1.383735  
     143A      1.390440   144A      1.395885   145A      1.412451  
     146A      1.434320   147A      1.457977   148A      1.462795  
     149A      1.467282   150A      1.467976   151A      1.469159  
     152A      1.537184   153A      1.546014   154A      1.568938  
     155A      1.635048   156A      1.649915   157A      1.683350  
     158A      1.715101   159A      1.717127   160A      1.755800  
     161A      1.772884   162A      1.799628   163A      1.848039  
     164A      1.865503   165A      1.882588   166A      1.883811  
     167A      1.936724   168A      1.966454   169A      1.979453  
     170A      2.026298   171A      2.037642   172A      2.070472  
     173A      2.122848   174A      2.172049   175A      2.193137  
     176A      2.244771   177A      2.250615   178A      2.253643  
     179A      2.264658   180A      2.272354   181A      2.273611  
     182A      2.302699   183A      2.312246   184A      2.336328  
     185A      2.338829   186A      2.361834   187A      2.376226  
     188A      2.379604   189A      2.430330   190A      2.438663  
     191A      2.466837   192A      2.505502   193A      2.536303  
     194A      2.585682   195A      2.623585   196A      2.652307  
     197A      2.664383   198A      2.698044   199A      2.754081  
     200A      2.783681   201A      2.785928   202A      2.823954  
     203A      2.833647   204A      2.886121   205A      2.915701  
     206A      2.974291   207A      3.001602   208A      3.016316  
     209A      3.042450   210A      3.178935   211A      3.182186  
     212A      3.278355   213A      3.310459   214A      3.346124  
     215A      3.356647   216A      3.431262   217A      3.486488  
     218A      3.662549   219A      3.666705   220A      3.690423  
     221A      3.736441   222A      3.739831   223A      3.759662  
     224A      3.790324   225A      3.805251   226A      3.900417  
     227A      4.025893   228A      4.050368   229A      4.142340  
     230A      4.153419   231A      4.309953   232A      4.504742  
     233A      4.616671   234A      4.724734   235A      4.925711  
     236A      4.969554   237A      4.977787   238A      5.001480  
     239A      5.016654   240A      5.033521   241A      5.052312  
     242A      5.221823   243A      5.244020   244A      5.614996  
     245A      5.661012   246A      5.791125   247A      5.868862  
     248A      6.052615   249A      6.228682   250A      6.520575  
     251A      6.790073   252A      7.092781   253A     18.346086  
     254A     18.940584   255A     33.525372   256A     33.563368  

    Final Occupation by Irrep:
              A 
    DOCC [    16 ]

  @DF-RHF Final Energy:  -227.84408589396278

   => Energetics <=

    Nuclear Repulsion Energy =            121.7484302345280298
    One-Electron Energy =                -552.7483714763172884
    Two-Electron Energy =                 203.1558553478264741
    Total Energy =                       -227.8440858939627844

Computation Completed


Properties will be evaluated at   0.000000,   0.000000,   0.000000 [a0]

Properties computed using the SCF density matrix

  Nuclear Dipole Moment: [e a0]
     X:  -903.4707      Y:  -669.4743      Z:  -286.1976

  Electronic Dipole Moment: [e a0]
     X:   904.2988      Y:   669.1914      Z:   286.1144

  Dipole Moment: [e a0]
     X:     0.8281      Y:    -0.2829      Z:    -0.0832     Total:     0.8790

  Dipole Moment: [D]
     X:     2.1048      Y:    -0.7191      Z:    -0.2116     Total:     2.2342


*** tstop() called on ds1 at Wed Sep  1 14:19:33 2021
Module time:
	user time   =      10.89 seconds =       0.18 minutes
	system time =       0.17 seconds =       0.00 minutes
	total time  =          3 seconds =       0.05 minutes
Total time:
	user time   =      36.44 seconds =       0.61 minutes
	system time =       0.76 seconds =       0.01 minutes
	total time  =          8 seconds =       0.13 minutes
  Constructing Basis Sets for SAPT...

   => Loading Basis Set <=

    Name: (AUG-CC-PVDZ AUX)
    Role: RIFIT
    Keyword: DF_BASIS_SAPT
    atoms 1-2, 9-10  entry O          line   204 file /theoryfs2/ds/csargent/miniconda3/envs/cle/share/psi4/basis/aug-cc-pvdz-ri.gbs 
    atoms 3-6, 11-14 entry H          line    30 file /theoryfs2/ds/csargent/miniconda3/envs/cle/share/psi4/basis/aug-cc-pvdz-ri.gbs 
    atoms 7-8, 15-16 entry C          line   112 file /theoryfs2/ds/csargent/miniconda3/envs/cle/share/psi4/basis/aug-cc-pvdz-ri.gbs 


  //>>>>>>>>>>>>>>>>>>>>>>>>>>>>>>>>>>>//
  //               SAPT0               //
  //<<<<<<<<<<<<<<<<<<<<<<<<<<<<<<<<<<<//


*** tstart() called on ds1
*** at Wed Sep  1 14:19:33 2021

        SAPT0  
    Ed Hohenstein
     6 June 2009

      Orbital Information
  --------------------------
    NSO        =       256
    NMO        =       256
    NRI        =       760
    NOCC A     =        16
    NOCC B     =        16
    FOCC A     =         4
    FOCC B     =         4
    NVIR A     =       240
    NVIR B     =       240

    Elst10,r            =     0.000008352408 [Eh]
    Exch10              =    -0.000000000000 [Eh]
    Exch10 (S^2)        =    -0.000000000000 [Eh]

    Iter     Energy [mEh]          dE [mEh]         Residual      Time [s]
       1      -0.00000848       0.000008485       0.020615503             0
       2      -0.00000893       0.000000443       0.008456895             1
       3      -0.00000948       0.000000549       0.003210168             1
       4      -0.00000961       0.000000135       0.000591956             1
       5      -0.00000959      -0.000000025       0.000238463             1
       6      -0.00000958      -0.000000005       0.000075657             1
       7      -0.00000958       0.000000001       0.000031422             1
       8      -0.00000958       0.000000001       0.000009200             1
       9      -0.00000958      -0.000000000       0.000002928             1
      10      -0.00000958      -0.000000000       0.000000714             1

    CHF Iterations converged


    Iter     Energy [mEh]          dE [mEh]         Residual      Time [s]
       1      -0.00000928       0.000009284       0.025663212             0
       2      -0.00000952       0.000000235       0.010362596             0
       3      -0.00001041       0.000000888       0.003125815             0
       4      -0.00001054       0.000000130       0.000812296             0
       5      -0.00001052      -0.000000020       0.000451381             1
       6      -0.00001050      -0.000000016       0.000128055             1
       7      -0.00001051       0.000000004       0.000039442             1
       8      -0.00001051       0.000000001       0.000007820             1
       9      -0.00001051      -0.000000000       0.000002673             1
      10      -0.00001051      -0.000000000       0.000001089             1
      11      -0.00001051       0.000000000       0.000000398             1

    CHF Iterations converged

    Ind20,r (A<-B)      =    -0.000000009583 [Eh]
    Ind20,r (B<-A)      =    -0.000000010506 [Eh]
    Ind20,r             =    -0.000000020089 [Eh]
    Exch-Ind20,r (A<-B) =     0.000000000000 [Eh]
    Exch-Ind20,r (B<-A) =     0.000000000000 [Eh]
    Exch-Ind20,r        =     0.000000000000 [Eh]
    Disp20              =    -0.000000281949 [Eh]
    Disp20 (SS)         =    -0.000000140975 [Eh]
    Disp20 (OS)         =    -0.000000140975 [Eh]
    Exch-Disp20         =     0.000000000000 [Eh]
    Exch-Disp20 (SS)    =     0.000000000000 [Eh]
    Exch-Disp20 (OS)    =     0.000000000000 [Eh]

    SAPT Results 
  --------------------------------------------------------------------------------------------------------
    Electrostatics                  0.00835241 [mEh]       0.00524121 [kcal/mol]       0.02192924 [kJ/mol]
      Elst10,r                      0.00835241 [mEh]       0.00524121 [kcal/mol]       0.02192924 [kJ/mol]

    Exchange                       -0.00000000 [mEh]      -0.00000000 [kcal/mol]      -0.00000000 [kJ/mol]
      Exch10                       -0.00000000 [mEh]      -0.00000000 [kcal/mol]      -0.00000000 [kJ/mol]
      Exch10(S^2)                  -0.00000000 [mEh]      -0.00000000 [kcal/mol]      -0.00000000 [kJ/mol]

    Induction                      -0.00003492 [mEh]      -0.00002191 [kcal/mol]      -0.00009169 [kJ/mol]
      Ind20,r                      -0.00002009 [mEh]      -0.00001261 [kcal/mol]      -0.00005274 [kJ/mol]
      Exch-Ind20,r                  0.00000000 [mEh]       0.00000000 [kcal/mol]       0.00000000 [kJ/mol]
      delta HF,r (2)               -0.00001483 [mEh]      -0.00000931 [kcal/mol]      -0.00003895 [kJ/mol]

    Dispersion                     -0.00028195 [mEh]      -0.00017693 [kcal/mol]      -0.00074026 [kJ/mol]
      Disp20                       -0.00028195 [mEh]      -0.00017693 [kcal/mol]      -0.00074026 [kJ/mol]
      Exch-Disp20                   0.00000000 [mEh]       0.00000000 [kcal/mol]       0.00000000 [kJ/mol]
      Disp20 (SS)                  -0.00014097 [mEh]      -0.00008846 [kcal/mol]      -0.00037013 [kJ/mol]
      Disp20 (OS)                  -0.00014097 [mEh]      -0.00008846 [kcal/mol]      -0.00037013 [kJ/mol]
      Exch-Disp20 (SS)              0.00000000 [mEh]       0.00000000 [kcal/mol]       0.00000000 [kJ/mol]
      Exch-Disp20 (OS)              0.00000000 [mEh]       0.00000000 [kcal/mol]       0.00000000 [kJ/mol]

  Total HF                          0.00831749 [mEh]       0.00521930 [kcal/mol]       0.02183755 [kJ/mol]
  Total SAPT0                       0.00803554 [mEh]       0.00504237 [kcal/mol]       0.02109730 [kJ/mol]

  Special recipe for scaled SAPT0 (see Manual):
    Electrostatics sSAPT0           0.00835241 [mEh]       0.00524121 [kcal/mol]       0.02192924 [kJ/mol]
    Exchange sSAPT0                -0.00000000 [mEh]      -0.00000000 [kcal/mol]      -0.00000000 [kJ/mol]
    Induction sSAPT0               -0.00003492 [mEh]      -0.00002191 [kcal/mol]      -0.00009169 [kJ/mol]
    Dispersion sSAPT0              -0.00028195 [mEh]      -0.00017693 [kcal/mol]      -0.00074026 [kJ/mol]
  Total sSAPT0                      0.00803554 [mEh]       0.00504237 [kcal/mol]       0.02109730 [kJ/mol]
  --------------------------------------------------------------------------------------------------------

*** tstop() called on ds1 at Wed Sep  1 14:19:38 2021
Module time:
	user time   =      27.02 seconds =       0.45 minutes
	system time =       2.34 seconds =       0.04 minutes
	total time  =          5 seconds =       0.08 minutes
Total time:
	user time   =      64.18 seconds =       1.07 minutes
	system time =       3.12 seconds =       0.05 minutes
	total time  =         13 seconds =       0.22 minutes


Warning! sapt0 does not have an associated derived wavefunction.The returned wavefunction is the dimer SCF wavefunction.


    Psi4 stopped on: Wednesday, 01 September 2021 02:19PM
    Psi4 wall time for execution: 0:00:14.01

*** Psi4 exiting successfully. Buy a developer a beer!
