
    -----------------------------------------------------------------------
          Psi4: An Open-Source Ab Initio Electronic Structure Package
                               Psi4 1.4rc3 

                         Git: Rev {HEAD} 080dba6 


    D. G. A. Smith, L. A. Burns, A. C. Simmonett, R. M. Parrish,
    M. C. Schieber, R. Galvelis, P. Kraus, H. Kruse, R. Di Remigio,
    A. Alenaizan, A. M. James, S. Lehtola, J. P. Misiewicz, M. Scheurer,
    R. A. Shaw, J. B. Schriber, Y. Xie, Z. L. Glick, D. A. Sirianni,
    J. S. O'Brien, J. M. Waldrop, A. Kumar, E. G. Hohenstein,
    B. P. Pritchard, B. R. Brooks, H. F. Schaefer III, A. Yu. Sokolov,
    K. Patkowski, A. E. DePrince III, U. Bozkaya, R. A. King,
    F. A. Evangelista, J. M. Turney, T. D. Crawford, C. D. Sherrill,
    J. Chem. Phys. 152(18) 184108 (2020). https://doi.org/10.1063/5.0006002

                            Additional Code Authors
    E. T. Seidl, C. L. Janssen, E. F. Valeev, M. L. Leininger,
    J. F. Gonthier, R. M. Richard, H. R. McAlexander, M. Saitow, X. Wang,
    P. Verma, and M. H. Lechner

             Previous Authors, Complete List of Code Contributors,
                       and Citations for Specific Modules
    https://github.com/psi4/psi4/blob/master/codemeta.json
    https://github.com/psi4/psi4/graphs/contributors
    http://psicode.org/psi4manual/master/introduction.html#citing-psifour

    -----------------------------------------------------------------------


    Psi4 started on: Wednesday, 01 September 2021 02:13PM

    Process ID: 21167
    Host:       ds1
    PSIDATADIR: /theoryfs2/ds/csargent/miniconda3/envs/cle/share/psi4
    Memory:     500.0 MiB
    Threads:    6
    
  ==> Input File <==

--------------------------------------------------------------------------
# PSI4 file produced by CrystaLattE

# Generated from:               acetic_acid.xyz
# Psithon input for N-mer:      2mer-0+163
# Number of atoms per monomer:  [8, 8]
# Number of replicas:           2
# COM priority:                 3.522934704216e-05
# Minimum COM separations:      16.142 
# Separation priority:          6.630832506161e-05
# Minimum monomer separations:  13.074 
# Cutoff priority:              2.683844876533e-06
# Nuclear repulsion energy:     277.16058762997704

memory 7 GB

molecule Dimer_0_163 {
  O           -5.53102237       2.93940290       1.97762624 
  O           -2.40708886       0.90817734       0.04905909 
  H           -0.50304887       1.37579205       4.63880908 
  H            0.00000000       4.25104285       3.09072238 
  H           -2.38948215       4.01916779       5.40195041 
  H           -3.74771411       0.47147930      -1.21557512 
  C           -1.41859782       2.98500500       3.84405190 
  C           -3.32263781       2.28628814       1.91221413 
--
  O            7.19108365      12.67351812     -25.27742123 
  O            4.06715015      14.70474369     -27.20598839 
  H            2.16311016      14.23712898     -22.61623840 
  H            1.66006128      11.36187817     -24.16432509 
  H            4.04954344      11.59375324     -21.85309707 
  H            5.40777540      15.14144173     -28.47062259 
  C            3.07865911      12.62791603     -23.41099558 
  C            4.98269910      13.32663289     -25.34283335 
units = au
no_com
no_reorient
}

set {
  e_convergence 10
  d_convergence 10
  scf_type df
  mp2_type df
  cc_type df
  freeze_core true
}

energy('sapt0/aug-cc-pvdz')

--------------------------------------------------------------------------

  Memory set to   6.519 GiB by Python driver.

Scratch directory: /scratch/csargent/psi4.17562.33784/

Scratch directory: /scratch/csargent/psi4.17562.33784/

  //>>>>>>>>>>>>>>>>>>>>>>>>>>>>>>>>>>>//
  //              Dimer HF             //
  //<<<<<<<<<<<<<<<<<<<<<<<<<<<<<<<<<<<//


*** tstart() called on ds1
*** at Wed Sep  1 14:13:47 2021

   => Loading Basis Set <=

    Name: AUG-CC-PVDZ
    Role: ORBITAL
    Keyword: BASIS
    atoms 1-2, 9-10  entry O          line   254 file /theoryfs2/ds/csargent/miniconda3/envs/cle/share/psi4/basis/aug-cc-pvdz.gbs 
    atoms 3-6, 11-14 entry H          line    40 file /theoryfs2/ds/csargent/miniconda3/envs/cle/share/psi4/basis/aug-cc-pvdz.gbs 
    atoms 7-8, 15-16 entry C          line   182 file /theoryfs2/ds/csargent/miniconda3/envs/cle/share/psi4/basis/aug-cc-pvdz.gbs 


         ---------------------------------------------------------
                                   SCF
               by Justin Turney, Rob Parrish, Andy Simmonett
                          and Daniel G. A. Smith
                              RHF Reference
                        6 Threads,   6675 MiB Core
         ---------------------------------------------------------

  ==> Geometry <==

    Molecular point group: c1
    Full point group: C1

    Geometry (in Bohr), charge = 0, multiplicity = 1:

       Center              X                  Y                   Z               Mass       
    ------------   -----------------  -----------------  -----------------  -----------------
         O           -5.531022370000     2.939402900000     1.977626240000    15.994914619570
         O           -2.407088860000     0.908177340000     0.049059090000    15.994914619570
         H           -0.503048870000     1.375792050000     4.638809080000     1.007825032230
         H            0.000000000000     4.251042850000     3.090722380000     1.007825032230
         H           -2.389482150000     4.019167790000     5.401950410000     1.007825032230
         H           -3.747714110000     0.471479300000    -1.215575120000     1.007825032230
         C           -1.418597820000     2.985005000000     3.844051900000    12.000000000000
         C           -3.322637810000     2.286288140000     1.912214130000    12.000000000000
         O            7.191083650000    12.673518120000   -25.277421230000    15.994914619570
         O            4.067150150000    14.704743690000   -27.205988390000    15.994914619570
         H            2.163110160000    14.237128980000   -22.616238400000     1.007825032230
         H            1.660061280000    11.361878170000   -24.164325090000     1.007825032230
         H            4.049543440000    11.593753240000   -21.853097070000     1.007825032230
         H            5.407775400000    15.141441730000   -28.470622590000     1.007825032230
         C            3.078659110000    12.627916030000   -23.410995580000    12.000000000000
         C            4.982699100000    13.326632890000   -25.342833350000    12.000000000000

  Running in c1 symmetry.

  Rotational constants: A =      0.04024  B =      0.00118  C =      0.00115 [cm^-1]
  Rotational constants: A =   1206.47838  B =     35.22658  C =     34.47646 [MHz]
  Nuclear repulsion =  277.160587753916388

  Charge       = 0
  Multiplicity = 1
  Electrons    = 64
  Nalpha       = 32
  Nbeta        = 32

  ==> Algorithm <==

  SCF Algorithm Type is DF.
  DIIS enabled.
  MOM disabled.
  Fractional occupation disabled.
  Guess Type is SAD.
  Energy threshold   = 1.00e-10
  Density threshold  = 1.00e-10
  Integral threshold = 1.00e-12

  ==> Primary Basis <==

  Basis Set: AUG-CC-PVDZ
    Blend: AUG-CC-PVDZ
    Number of shells: 112
    Number of basis functions: 256
    Number of Cartesian functions: 272
    Spherical Harmonics?: true
    Max angular momentum: 2

   => Loading Basis Set <=

    Name: (AUG-CC-PVDZ AUX)
    Role: JKFIT
    Keyword: DF_BASIS_SCF
    atoms 1-2, 9-10  entry O          line   270 file /theoryfs2/ds/csargent/miniconda3/envs/cle/share/psi4/basis/aug-cc-pvdz-jkfit.gbs 
    atoms 3-6, 11-14 entry H          line    70 file /theoryfs2/ds/csargent/miniconda3/envs/cle/share/psi4/basis/aug-cc-pvdz-jkfit.gbs 
    atoms 7-8, 15-16 entry C          line   154 file /theoryfs2/ds/csargent/miniconda3/envs/cle/share/psi4/basis/aug-cc-pvdz-jkfit.gbs 

  ==> Integral Setup <==

  ==> DiskDFJK: Density-Fitted J/K Matrices <==

    J tasked:                  Yes
    K tasked:                  Yes
    wK tasked:                  No
    OpenMP threads:              6
    Integrals threads:           6
    Memory [MiB]:             5006
    Algorithm:                Core
    Integral Cache:           SAVE
    Schwarz Cutoff:          1E-12
    Fitting Condition:       1E-10

   => Auxiliary Basis Set <=

  Basis Set: (AUG-CC-PVDZ AUX)
    Blend: AUG-CC-PVDZ-JKFIT
    Number of shells: 320
    Number of basis functions: 944
    Number of Cartesian functions: 1088
    Spherical Harmonics?: true
    Max angular momentum: 3

  Minimum eigenvalue in the overlap matrix is 1.0276606944E-04.
  Reciprocal condition number of the overlap matrix is 9.6530247165E-06.
    Using symmetric orthogonalization.

  ==> Pre-Iterations <==

  SCF Guess: Superposition of Atomic Densities via on-the-fly atomic UHF (no occupation information).

   -------------------------
    Irrep   Nso     Nmo    
   -------------------------
     A        256     256 
   -------------------------
    Total     256     256
   -------------------------

  ==> Iterations <==

                           Total Energy        Delta E     RMS |[F,P]|

   @DF-RHF iter SAD:  -453.97985886781117   -4.53980e+02   0.00000e+00 
   @DF-RHF iter   1:  -455.36186074753425   -1.38200e+00   3.22733e-03 DIIS
   @DF-RHF iter   2:  -455.60187184031838   -2.40011e-01   1.87323e-03 DIIS
   @DF-RHF iter   3:  -455.68265774703804   -8.07859e-02   3.30195e-04 DIIS
   @DF-RHF iter   4:  -455.68712876956403   -4.47102e-03   1.46082e-04 DIIS
   @DF-RHF iter   5:  -455.68808985554307   -9.61086e-04   3.42275e-05 DIIS
   @DF-RHF iter   6:  -455.68816414191656   -7.42864e-05   1.66553e-05 DIIS
   @DF-RHF iter   7:  -455.68818370198693   -1.95601e-05   5.43185e-06 DIIS
   @DF-RHF iter   8:  -455.68818686323073   -3.16124e-06   1.43622e-06 DIIS
   @DF-RHF iter   9:  -455.68818709642846   -2.33198e-07   3.01276e-07 DIIS
   @DF-RHF iter  10:  -455.68818710407652   -7.64805e-09   7.94543e-08 DIIS
   @DF-RHF iter  11:  -455.68818710448409   -4.07567e-10   2.54849e-08 DIIS
   @DF-RHF iter  12:  -455.68818710452769   -4.35989e-11   6.03956e-09 DIIS
   @DF-RHF iter  13:  -455.68818710453110   -3.41061e-12   1.29479e-09 DIIS
   @DF-RHF iter  14:  -455.68818710453098    1.13687e-13   5.13555e-10 DIIS
   @DF-RHF iter  15:  -455.68818710453104   -5.68434e-14   2.03450e-10 DIIS
   @DF-RHF iter  16:  -455.68818710453161   -5.68434e-13   5.79468e-11 DIIS
  Energy and wave function converged.


  ==> Post-Iterations <==

    Orbital Energies [Eh]
    ---------------------

    Doubly Occupied:                                                      

       1A    -20.629725     2A    -20.629687     3A    -20.553058  
       4A    -20.553049     5A    -11.396352     6A    -11.396351  
       7A    -11.251228     8A    -11.251161     9A     -1.476103  
      10A     -1.476074    11A     -1.357742    12A     -1.357725  
      13A     -1.033242    14A     -1.033200    15A     -0.838162  
      16A     -0.838152    17A     -0.703318    18A     -0.703302  
      19A     -0.688699    20A     -0.688689    21A     -0.657978  
      22A     -0.657978    23A     -0.576770    24A     -0.576769  
      25A     -0.569929    26A     -0.569900    27A     -0.561658  
      28A     -0.561595    29A     -0.475605    30A     -0.475585  
      31A     -0.452684    32A     -0.452680  

    Virtual:                                                              

      33A      0.031978    34A      0.032076    35A      0.045300  
      36A      0.045499    37A      0.054908    38A      0.054969  
      39A      0.064247    40A      0.064501    41A      0.098511  
      42A      0.098568    43A      0.117083    44A      0.117114  
      45A      0.117582    46A      0.117645    47A      0.140238  
      48A      0.140375    49A      0.151627    50A      0.151998  
      51A      0.156085    52A      0.156181    53A      0.164291  
      54A      0.164386    55A      0.171062    56A      0.171118  
      57A      0.196072    58A      0.196097    59A      0.208970  
      60A      0.209050    61A      0.233129    62A      0.233188  
      63A      0.234673    64A      0.234795    65A      0.270572  
      66A      0.270659    67A      0.290023    68A      0.290038  
      69A      0.295580    70A      0.295611    71A      0.319574  
      72A      0.319623    73A      0.322491    74A      0.322535  
      75A      0.347029    76A      0.347077    77A      0.370397  
      78A      0.370404    79A      0.378649    80A      0.378679  
      81A      0.393866    82A      0.393909    83A      0.401137  
      84A      0.401256    85A      0.426381    86A      0.426616  
      87A      0.437973    88A      0.438021    89A      0.441767  
      90A      0.441838    91A      0.475309    92A      0.475331  
      93A      0.492129    94A      0.492165    95A      0.524522  
      96A      0.524583    97A      0.536989    98A      0.537038  
      99A      0.553254   100A      0.553299   101A      0.569459  
     102A      0.569562   103A      0.583542   104A      0.583600  
     105A      0.601840   106A      0.601911   107A      0.617972  
     108A      0.618036   109A      0.640087   110A      0.640103  
     111A      0.649058   112A      0.649094   113A      0.666485  
     114A      0.666506   115A      0.683955   116A      0.683990  
     117A      0.696944   118A      0.696973   119A      0.703328  
     120A      0.703386   121A      0.733052   122A      0.733087  
     123A      0.742510   124A      0.742531   125A      0.798210  
     126A      0.798271   127A      0.853337   128A      0.853366  
     129A      0.876570   130A      0.876607   131A      0.912162  
     132A      0.912164   133A      0.949465   134A      0.949469  
     135A      0.954107   136A      0.954176   137A      0.982902  
     138A      0.982920   139A      1.041309   140A      1.041326  
     141A      1.088569   142A      1.088621   143A      1.101603  
     144A      1.101646   145A      1.118107   146A      1.118170  
     147A      1.157271   148A      1.157297   149A      1.171907  
     150A      1.171922   151A      1.176124   152A      1.176137  
     153A      1.235816   154A      1.235822   155A      1.271931  
     156A      1.271948   157A      1.318970   158A      1.318981  
     159A      1.357928   160A      1.357943   161A      1.390180  
     162A      1.390203   163A      1.412205   164A      1.412241  
     165A      1.462533   166A      1.462560   167A      1.467720  
     168A      1.467751   169A      1.545767   170A      1.545813  
     171A      1.634811   172A      1.634815   173A      1.649683  
     174A      1.649689   175A      1.714866   176A      1.714877  
     177A      1.755560   178A      1.755582   179A      1.772631  
     180A      1.772700   181A      1.847792   182A      1.847798  
     183A      1.865263   184A      1.865301   185A      1.883568  
     186A      1.883634   187A      1.966230   188A      1.966232  
     189A      1.979195   190A      1.979225   191A      2.026055  
     192A      2.026089   193A      2.037401   194A      2.037418  
     195A      2.122606   196A      2.122621   197A      2.171820  
     198A      2.171836   199A      2.192900   200A      2.192922  
     201A      2.244521   202A      2.244573   203A      2.253407  
     204A      2.253427   205A      2.272112   206A      2.272122  
     207A      2.312009   208A      2.312024   209A      2.379368  
     210A      2.379403   211A      2.430098   212A      2.430102  
     213A      2.438423   214A      2.438459   215A      2.536063  
     216A      2.536096   217A      2.623342   218A      2.623363  
     219A      2.652057   220A      2.652118   221A      2.783426  
     222A      2.783478   223A      2.833410   224A      2.833435  
     225A      2.885876   226A      2.885928   227A      2.974064  
     228A      2.974072   229A      3.001371   230A      3.001401  
     231A      3.016079   232A      3.016098   233A      3.178688  
     234A      3.178723   235A      3.345861   236A      3.345903  
     237A      3.666459   238A      3.666491   239A      3.690174  
     240A      3.690210   241A      3.736190   242A      3.736215  
     243A      3.759401   244A      3.759417   245A      3.790067  
     246A      3.790087   247A      3.804990   248A      3.805008  
     249A      3.900163   250A      3.900188   251A      4.050114  
     252A      4.050131   253A      4.142079   254A      4.142102  
     255A      4.309706   256A      4.309740  

    Final Occupation by Irrep:
              A 
    DOCC [    32 ]

  @DF-RHF Final Energy:  -455.68818710453161

   => Energetics <=

    Nuclear Repulsion Energy =            277.1605877539163885
    One-Electron Energy =               -1172.8092550197200126
    Two-Electron Energy =                 439.9604801612720166
    Total Energy =                       -455.6881871045316075

Computation Completed


Properties will be evaluated at   0.000000,   0.000000,   0.000000 [a0]

Properties computed using the SCF density matrix

  Nuclear Dipole Moment: [e a0]
     X:    53.1220      Y:   499.6135      Z:  -746.8275

  Electronic Dipole Moment: [e a0]
     X:   -53.1216      Y:  -499.6132      Z:   746.6612

  Dipole Moment: [e a0]
     X:     0.0004      Y:     0.0003      Z:    -0.1663     Total:     0.1663

  Dipole Moment: [D]
     X:     0.0009      Y:     0.0007      Z:    -0.4227     Total:     0.4227


*** tstop() called on ds1 at Wed Sep  1 14:13:50 2021
Module time:
	user time   =      14.74 seconds =       0.25 minutes
	system time =       0.42 seconds =       0.01 minutes
	total time  =          3 seconds =       0.05 minutes
Total time:
	user time   =      14.74 seconds =       0.25 minutes
	system time =       0.42 seconds =       0.01 minutes
	total time  =          3 seconds =       0.05 minutes

  //>>>>>>>>>>>>>>>>>>>>>>>>>>>>>>>>>>>//
  //            Monomer A HF           //
  //<<<<<<<<<<<<<<<<<<<<<<<<<<<<<<<<<<<//


*** tstart() called on ds1
*** at Wed Sep  1 14:13:50 2021

   => Loading Basis Set <=

    Name: AUG-CC-PVDZ
    Role: ORBITAL
    Keyword: BASIS
    atoms 1-2, 9-10  entry O          line   254 file /theoryfs2/ds/csargent/miniconda3/envs/cle/share/psi4/basis/aug-cc-pvdz.gbs 
    atoms 3-6, 11-14 entry H          line    40 file /theoryfs2/ds/csargent/miniconda3/envs/cle/share/psi4/basis/aug-cc-pvdz.gbs 
    atoms 7-8, 15-16 entry C          line   182 file /theoryfs2/ds/csargent/miniconda3/envs/cle/share/psi4/basis/aug-cc-pvdz.gbs 


         ---------------------------------------------------------
                                   SCF
               by Justin Turney, Rob Parrish, Andy Simmonett
                          and Daniel G. A. Smith
                              RHF Reference
                        6 Threads,   6675 MiB Core
         ---------------------------------------------------------

  ==> Geometry <==

    Molecular point group: c1
    Full point group: C1

    Geometry (in Bohr), charge = 0, multiplicity = 1:

       Center              X                  Y                   Z               Mass       
    ------------   -----------------  -----------------  -----------------  -----------------
         O           -5.531022370000     2.939402900000     1.977626240000    15.994914619570
         O           -2.407088860000     0.908177340000     0.049059090000    15.994914619570
         H           -0.503048870000     1.375792050000     4.638809080000     1.007825032230
         H            0.000000000000     4.251042850000     3.090722380000     1.007825032230
         H           -2.389482150000     4.019167790000     5.401950410000     1.007825032230
         H           -3.747714110000     0.471479300000    -1.215575120000     1.007825032230
         C           -1.418597820000     2.985005000000     3.844051900000    12.000000000000
         C           -3.322637810000     2.286288140000     1.912214130000    12.000000000000
      Gh(O)           7.191083650000    12.673518120000   -25.277421230000    15.994914619570
      Gh(O)           4.067150150000    14.704743690000   -27.205988390000    15.994914619570
      Gh(H)           2.163110160000    14.237128980000   -22.616238400000     1.007825032230
      Gh(H)           1.660061280000    11.361878170000   -24.164325090000     1.007825032230
      Gh(H)           4.049543440000    11.593753240000   -21.853097070000     1.007825032230
      Gh(H)           5.407775400000    15.141441730000   -28.470622590000     1.007825032230
      Gh(C)           3.078659110000    12.627916030000   -23.410995580000    12.000000000000
      Gh(C)           4.982699100000    13.326632890000   -25.342833350000    12.000000000000

  Running in c1 symmetry.

  Rotational constants: A =      0.04024  B =      0.00118  C =      0.00115 [cm^-1]
  Rotational constants: A =   1206.47838  B =     35.22658  C =     34.47646 [MHz]
  Nuclear repulsion =  121.748430210971620

  Charge       = 0
  Multiplicity = 1
  Electrons    = 32
  Nalpha       = 16
  Nbeta        = 16

  ==> Algorithm <==

  SCF Algorithm Type is DF.
  DIIS enabled.
  MOM disabled.
  Fractional occupation disabled.
  Guess Type is SAD.
  Energy threshold   = 1.00e-10
  Density threshold  = 1.00e-10
  Integral threshold = 1.00e-12

  ==> Primary Basis <==

  Basis Set: AUG-CC-PVDZ
    Blend: AUG-CC-PVDZ
    Number of shells: 112
    Number of basis functions: 256
    Number of Cartesian functions: 272
    Spherical Harmonics?: true
    Max angular momentum: 2

   => Loading Basis Set <=

    Name: (AUG-CC-PVDZ AUX)
    Role: JKFIT
    Keyword: DF_BASIS_SCF
    atoms 1-2, 9-10  entry O          line   270 file /theoryfs2/ds/csargent/miniconda3/envs/cle/share/psi4/basis/aug-cc-pvdz-jkfit.gbs 
    atoms 3-6, 11-14 entry H          line    70 file /theoryfs2/ds/csargent/miniconda3/envs/cle/share/psi4/basis/aug-cc-pvdz-jkfit.gbs 
    atoms 7-8, 15-16 entry C          line   154 file /theoryfs2/ds/csargent/miniconda3/envs/cle/share/psi4/basis/aug-cc-pvdz-jkfit.gbs 

  ==> Integral Setup <==

  ==> DiskDFJK: Density-Fitted J/K Matrices <==

    J tasked:                  Yes
    K tasked:                  Yes
    wK tasked:                  No
    OpenMP threads:              6
    Integrals threads:           6
    Memory [MiB]:             5006
    Algorithm:                Core
    Integral Cache:           LOAD
    Schwarz Cutoff:          1E-12
    Fitting Condition:       1E-10

   => Auxiliary Basis Set <=

  Basis Set: (AUG-CC-PVDZ AUX)
    Blend: AUG-CC-PVDZ-JKFIT
    Number of shells: 320
    Number of basis functions: 944
    Number of Cartesian functions: 1088
    Spherical Harmonics?: true
    Max angular momentum: 3

  Minimum eigenvalue in the overlap matrix is 1.0276606944E-04.
  Reciprocal condition number of the overlap matrix is 9.6530247165E-06.
    Using symmetric orthogonalization.

  ==> Pre-Iterations <==

  SCF Guess: Superposition of Atomic Densities via on-the-fly atomic UHF (no occupation information).

   -------------------------
    Irrep   Nso     Nmo    
   -------------------------
     A        256     256 
   -------------------------
    Total     256     256
   -------------------------

  ==> Iterations <==

                           Total Energy        Delta E     RMS |[F,P]|

   @DF-RHF iter SAD:  -226.98992942983796   -2.26990e+02   0.00000e+00 
   @DF-RHF iter   1:  -227.68091167920005   -6.90982e-01   2.28211e-03 DIIS
   @DF-RHF iter   2:  -227.80091445236718   -1.20003e-01   1.32478e-03 DIIS
   @DF-RHF iter   3:  -227.84131987156039   -4.04054e-02   2.33581e-04 DIIS
   @DF-RHF iter   4:  -227.84355633505984   -2.23646e-03   1.03339e-04 DIIS
   @DF-RHF iter   5:  -227.84403723605632   -4.80901e-04   2.42136e-05 DIIS
   @DF-RHF iter   6:  -227.84407440405320   -3.71680e-05   1.17797e-05 DIIS
   @DF-RHF iter   7:  -227.84408419217900   -9.78813e-06   3.84272e-06 DIIS
   @DF-RHF iter   8:  -227.84408577376587   -1.58159e-06   1.01577e-06 DIIS
   @DF-RHF iter   9:  -227.84408589041635   -1.16650e-07   2.12954e-07 DIIS
   @DF-RHF iter  10:  -227.84408589423651   -3.82016e-09   5.61608e-08 DIIS
   @DF-RHF iter  11:  -227.84408589444055   -2.04039e-10   1.80148e-08 DIIS
   @DF-RHF iter  12:  -227.84408589446198   -2.14300e-11   4.26466e-09 DIIS
   @DF-RHF iter  13:  -227.84408589446383   -1.84741e-12   8.93569e-10 DIIS
   @DF-RHF iter  14:  -227.84408589446417   -3.41061e-13   2.86711e-10 DIIS
   @DF-RHF iter  15:  -227.84408589446411    5.68434e-14   1.08058e-10 DIIS
   @DF-RHF iter  16:  -227.84408589446386    2.55795e-13   2.86097e-11 DIIS
  Energy and wave function converged.


  ==> Post-Iterations <==

    Orbital Energies [Eh]
    ---------------------

    Doubly Occupied:                                                      

       1A    -20.629476     2A    -20.552804     3A    -11.396108  
       4A    -11.250979     5A     -1.475853     6A     -1.357486  
       7A     -1.032999     8A     -0.837930     9A     -0.703065  
      10A     -0.688465    11A     -0.657749    12A     -0.576538  
      13A     -0.569697    14A     -0.561403    15A     -0.475343  
      16A     -0.452434  

    Virtual:                                                              

      17A      0.024541    18A      0.032213    19A      0.045612  
      20A      0.046603    21A      0.055078    22A      0.055377  
      23A      0.056229    24A      0.064644    25A      0.085117  
      26A      0.098769    27A      0.104416    28A      0.111975  
      29A      0.117100    30A      0.117330    31A      0.117857  
      32A      0.140003    33A      0.140629    34A      0.141149  
      35A      0.146595    36A      0.151983    37A      0.156358  
      38A      0.164577    39A      0.171320    40A      0.176156  
      41A      0.196303    42A      0.205434    43A      0.209237  
      44A      0.214397    45A      0.226070    46A      0.233376  
      47A      0.234963    48A      0.243801    49A      0.260028  
      50A      0.264609    51A      0.270849    52A      0.276408  
      53A      0.285232    54A      0.290295    55A      0.295802  
      56A      0.319833    57A      0.322781    58A      0.332034  
      59A      0.336016    60A      0.347276    61A      0.369179  
      62A      0.370652    63A      0.378870    64A      0.394119  
      65A      0.399042    66A      0.401429    67A      0.409554  
      68A      0.426691    69A      0.430913    70A      0.437694  
      71A      0.438218    72A      0.442007    73A      0.460267  
      74A      0.475555    75A      0.490020    76A      0.492358  
      77A      0.497085    78A      0.516295    79A      0.524763  
      80A      0.537262    81A      0.541570    82A      0.543329  
      83A      0.553487    84A      0.559408    85A      0.569740  
      86A      0.583791    87A      0.586595    88A      0.602101  
      89A      0.616109    90A      0.618231    91A      0.636020  
      92A      0.636843    93A      0.640311    94A      0.649301  
      95A      0.666705    96A      0.674917    97A      0.684210  
      98A      0.689707    99A      0.697190   100A      0.700580  
     101A      0.703571   102A      0.727888   103A      0.733289  
     104A      0.742748   105A      0.753397   106A      0.760068  
     107A      0.786937   108A      0.798460   109A      0.815545  
     110A      0.819865   111A      0.848009   112A      0.853582  
     113A      0.876833   114A      0.887944   115A      0.896194  
     116A      0.912403   117A      0.947379   118A      0.949697  
     119A      0.954375   120A      0.957893   121A      0.975680  
     122A      0.983144   123A      1.037730   124A      1.041547  
     125A      1.044979   126A      1.088819   127A      1.101839  
     128A      1.106191   129A      1.118367   130A      1.157520  
     131A      1.162349   132A      1.172141   133A      1.176359  
     134A      1.190674   135A      1.236033   136A      1.260422  
     137A      1.270016   138A      1.272187   139A      1.319230  
     140A      1.329358   141A      1.358181   142A      1.383863  
     143A      1.390440   144A      1.396051   145A      1.412451  
     146A      1.434425   147A      1.458152   148A      1.462795  
     149A      1.467436   150A      1.467976   151A      1.469313  
     152A      1.537329   153A      1.546014   154A      1.569080  
     155A      1.635048   156A      1.649915   157A      1.683497  
     158A      1.715101   159A      1.717249   160A      1.755800  
     161A      1.772884   162A      1.799766   163A      1.848040  
     164A      1.865503   165A      1.882651   166A      1.883811  
     167A      1.936815   168A      1.966454   169A      1.979453  
     170A      2.026298   171A      2.037642   172A      2.070547  
     173A      2.122848   174A      2.172049   175A      2.193137  
     176A      2.244771   177A      2.250655   178A      2.253643  
     179A      2.264751   180A      2.272354   181A      2.273780  
     182A      2.302786   183A      2.312246   184A      2.336371  
     185A      2.338928   186A      2.361955   187A      2.376350  
     188A      2.379604   189A      2.430330   190A      2.438663  
     191A      2.466974   192A      2.505694   193A      2.536303  
     194A      2.585794   195A      2.623585   196A      2.652307  
     197A      2.664517   198A      2.698147   199A      2.754173  
     200A      2.783681   201A      2.786016   202A      2.824025  
     203A      2.833647   204A      2.886121   205A      2.915848  
     206A      2.974292   207A      3.001602   208A      3.016316  
     209A      3.042557   210A      3.178935   211A      3.182276  
     212A      3.278453   213A      3.310552   214A      3.346124  
     215A      3.356738   216A      3.431369   217A      3.486562  
     218A      3.662658   219A      3.666705   220A      3.690423  
     221A      3.736441   222A      3.739996   223A      3.759662  
     224A      3.790324   225A      3.805251   226A      3.900417  
     227A      4.025998   228A      4.050368   229A      4.142340  
     230A      4.153631   231A      4.309953   232A      4.504857  
     233A      4.616829   234A      4.724824   235A      4.925839  
     236A      4.969672   237A      4.977962   238A      5.001587  
     239A      5.016810   240A      5.033699   241A      5.052388  
     242A      5.221928   243A      5.244119   244A      5.615204  
     245A      5.661182   246A      5.791294   247A      5.868974  
     248A      6.052744   249A      6.228785   250A      6.520768  
     251A      6.790247   252A      7.092920   253A     18.346181  
     254A     18.940685   255A     33.525468   256A     33.563573  

    Final Occupation by Irrep:
              A 
    DOCC [    16 ]

  @DF-RHF Final Energy:  -227.84408589446386

   => Energetics <=

    Nuclear Repulsion Energy =            121.7484302109716197
    One-Electron Energy =                -552.7483714261079513
    Two-Electron Energy =                 203.1558553206724866
    Total Energy =                       -227.8440858944638592

Computation Completed


Properties will be evaluated at   0.000000,   0.000000,   0.000000 [a0]

Properties computed using the SCF density matrix

  Nuclear Dipole Moment: [e a0]
     X:   -98.5925      Y:    72.5259      Z:    62.6670

  Electronic Dipole Moment: [e a0]
     X:    99.4206      Y:   -72.8088      Z:   -62.7502

  Dipole Moment: [e a0]
     X:     0.8281      Y:    -0.2829      Z:    -0.0832     Total:     0.8790

  Dipole Moment: [D]
     X:     2.1048      Y:    -0.7191      Z:    -0.2116     Total:     2.2342


*** tstop() called on ds1 at Wed Sep  1 14:13:53 2021
Module time:
	user time   =      10.81 seconds =       0.18 minutes
	system time =       0.21 seconds =       0.00 minutes
	total time  =          3 seconds =       0.05 minutes
Total time:
	user time   =      25.57 seconds =       0.43 minutes
	system time =       0.63 seconds =       0.01 minutes
	total time  =          6 seconds =       0.10 minutes

  //>>>>>>>>>>>>>>>>>>>>>>>>>>>>>>>>>>>//
  //            Monomer B HF           //
  //<<<<<<<<<<<<<<<<<<<<<<<<<<<<<<<<<<<//


*** tstart() called on ds1
*** at Wed Sep  1 14:13:53 2021

   => Loading Basis Set <=

    Name: AUG-CC-PVDZ
    Role: ORBITAL
    Keyword: BASIS
    atoms 1-2, 9-10  entry O          line   254 file /theoryfs2/ds/csargent/miniconda3/envs/cle/share/psi4/basis/aug-cc-pvdz.gbs 
    atoms 3-6, 11-14 entry H          line    40 file /theoryfs2/ds/csargent/miniconda3/envs/cle/share/psi4/basis/aug-cc-pvdz.gbs 
    atoms 7-8, 15-16 entry C          line   182 file /theoryfs2/ds/csargent/miniconda3/envs/cle/share/psi4/basis/aug-cc-pvdz.gbs 


         ---------------------------------------------------------
                                   SCF
               by Justin Turney, Rob Parrish, Andy Simmonett
                          and Daniel G. A. Smith
                              RHF Reference
                        6 Threads,   6675 MiB Core
         ---------------------------------------------------------

  ==> Geometry <==

    Molecular point group: c1
    Full point group: C1

    Geometry (in Bohr), charge = 0, multiplicity = 1:

       Center              X                  Y                   Z               Mass       
    ------------   -----------------  -----------------  -----------------  -----------------
      Gh(O)          -5.531022370000     2.939402900000     1.977626240000    15.994914619570
      Gh(O)          -2.407088860000     0.908177340000     0.049059090000    15.994914619570
      Gh(H)          -0.503048870000     1.375792050000     4.638809080000     1.007825032230
      Gh(H)           0.000000000000     4.251042850000     3.090722380000     1.007825032230
      Gh(H)          -2.389482150000     4.019167790000     5.401950410000     1.007825032230
      Gh(H)          -3.747714110000     0.471479300000    -1.215575120000     1.007825032230
      Gh(C)          -1.418597820000     2.985005000000     3.844051900000    12.000000000000
      Gh(C)          -3.322637810000     2.286288140000     1.912214130000    12.000000000000
         O            7.191083650000    12.673518120000   -25.277421230000    15.994914619570
         O            4.067150150000    14.704743690000   -27.205988390000    15.994914619570
         H            2.163110160000    14.237128980000   -22.616238400000     1.007825032230
         H            1.660061280000    11.361878170000   -24.164325090000     1.007825032230
         H            4.049543440000    11.593753240000   -21.853097070000     1.007825032230
         H            5.407775400000    15.141441730000   -28.470622590000     1.007825032230
         C            3.078659110000    12.627916030000   -23.410995580000    12.000000000000
         C            4.982699100000    13.326632890000   -25.342833350000    12.000000000000

  Running in c1 symmetry.

  Rotational constants: A =      0.04024  B =      0.00118  C =      0.00115 [cm^-1]
  Rotational constants: A =   1206.47838  B =     35.22658  C =     34.47646 [MHz]
  Nuclear repulsion =  121.748430295917586

  Charge       = 0
  Multiplicity = 1
  Electrons    = 32
  Nalpha       = 16
  Nbeta        = 16

  ==> Algorithm <==

  SCF Algorithm Type is DF.
  DIIS enabled.
  MOM disabled.
  Fractional occupation disabled.
  Guess Type is SAD.
  Energy threshold   = 1.00e-10
  Density threshold  = 1.00e-10
  Integral threshold = 1.00e-12

  ==> Primary Basis <==

  Basis Set: AUG-CC-PVDZ
    Blend: AUG-CC-PVDZ
    Number of shells: 112
    Number of basis functions: 256
    Number of Cartesian functions: 272
    Spherical Harmonics?: true
    Max angular momentum: 2

   => Loading Basis Set <=

    Name: (AUG-CC-PVDZ AUX)
    Role: JKFIT
    Keyword: DF_BASIS_SCF
    atoms 1-2, 9-10  entry O          line   270 file /theoryfs2/ds/csargent/miniconda3/envs/cle/share/psi4/basis/aug-cc-pvdz-jkfit.gbs 
    atoms 3-6, 11-14 entry H          line    70 file /theoryfs2/ds/csargent/miniconda3/envs/cle/share/psi4/basis/aug-cc-pvdz-jkfit.gbs 
    atoms 7-8, 15-16 entry C          line   154 file /theoryfs2/ds/csargent/miniconda3/envs/cle/share/psi4/basis/aug-cc-pvdz-jkfit.gbs 

  ==> Integral Setup <==

  ==> DiskDFJK: Density-Fitted J/K Matrices <==

    J tasked:                  Yes
    K tasked:                  Yes
    wK tasked:                  No
    OpenMP threads:              6
    Integrals threads:           6
    Memory [MiB]:             5006
    Algorithm:                Core
    Integral Cache:           LOAD
    Schwarz Cutoff:          1E-12
    Fitting Condition:       1E-10

   => Auxiliary Basis Set <=

  Basis Set: (AUG-CC-PVDZ AUX)
    Blend: AUG-CC-PVDZ-JKFIT
    Number of shells: 320
    Number of basis functions: 944
    Number of Cartesian functions: 1088
    Spherical Harmonics?: true
    Max angular momentum: 3

  Minimum eigenvalue in the overlap matrix is 1.0276606944E-04.
  Reciprocal condition number of the overlap matrix is 9.6530247165E-06.
    Using symmetric orthogonalization.

  ==> Pre-Iterations <==

  SCF Guess: Superposition of Atomic Densities via on-the-fly atomic UHF (no occupation information).

   -------------------------
    Irrep   Nso     Nmo    
   -------------------------
     A        256     256 
   -------------------------
    Total     256     256
   -------------------------

  ==> Iterations <==

                           Total Energy        Delta E     RMS |[F,P]|

   @DF-RHF iter SAD:  -226.98992943748732   -2.26990e+02   0.00000e+00 
   @DF-RHF iter   1:  -227.68091167804428   -6.90982e-01   2.28211e-03 DIIS
   @DF-RHF iter   2:  -227.80091445183433   -1.20003e-01   1.32478e-03 DIIS
   @DF-RHF iter   3:  -227.84131987113190   -4.04054e-02   2.33581e-04 DIIS
   @DF-RHF iter   4:  -227.84355633463784   -2.23646e-03   1.03339e-04 DIIS
   @DF-RHF iter   5:  -227.84403723563346   -4.80901e-04   2.42136e-05 DIIS
   @DF-RHF iter   6:  -227.84407440362864   -3.71680e-05   1.17797e-05 DIIS
   @DF-RHF iter   7:  -227.84408419175395   -9.78813e-06   3.84272e-06 DIIS
   @DF-RHF iter   8:  -227.84408577334065   -1.58159e-06   1.01577e-06 DIIS
   @DF-RHF iter   9:  -227.84408588999054   -1.16650e-07   2.12953e-07 DIIS
   @DF-RHF iter  10:  -227.84408589381147   -3.82093e-09   5.61608e-08 DIIS
   @DF-RHF iter  11:  -227.84408589401502   -2.03556e-10   1.80147e-08 DIIS
   @DF-RHF iter  12:  -227.84408589403688   -2.18563e-11   4.26466e-09 DIIS
   @DF-RHF iter  13:  -227.84408589403850   -1.62004e-12   8.93569e-10 DIIS
   @DF-RHF iter  14:  -227.84408589403884   -3.41061e-13   2.86710e-10 DIIS
   @DF-RHF iter  15:  -227.84408589403876    8.52651e-14   1.08058e-10 DIIS
   @DF-RHF iter  16:  -227.84408589403841    3.41061e-13   2.86096e-11 DIIS
  Energy and wave function converged.


  ==> Post-Iterations <==

    Orbital Energies [Eh]
    ---------------------

    Doubly Occupied:                                                      

       1A    -20.629476     2A    -20.552804     3A    -11.396108  
       4A    -11.250979     5A     -1.475853     6A     -1.357486  
       7A     -1.032999     8A     -0.837930     9A     -0.703065  
      10A     -0.688465    11A     -0.657749    12A     -0.576538  
      13A     -0.569697    14A     -0.561403    15A     -0.475343  
      16A     -0.452434  

    Virtual:                                                              

      17A      0.024568    18A      0.032214    19A      0.045615  
      20A      0.046580    21A      0.055082    22A      0.055402  
      23A      0.056345    24A      0.064645    25A      0.085142  
      26A      0.098769    27A      0.104396    28A      0.111952  
      29A      0.117237    30A      0.117324    31A      0.117857  
      32A      0.140129    33A      0.140557    34A      0.141193  
      35A      0.146672    36A      0.151983    37A      0.156356  
      38A      0.164580    39A      0.171321    40A      0.176149  
      41A      0.196303    42A      0.205387    43A      0.209237  
      44A      0.214378    45A      0.226043    46A      0.233376  
      47A      0.234963    48A      0.243788    49A      0.259972  
      50A      0.264584    51A      0.270849    52A      0.276393  
      53A      0.285230    54A      0.290295    55A      0.295802  
      56A      0.319834    57A      0.322781    58A      0.332112  
      59A      0.336086    60A      0.347275    61A      0.369264  
      62A      0.370652    63A      0.378870    64A      0.394119  
      65A      0.399123    66A      0.401430    67A      0.409620  
      68A      0.426692    69A      0.430951    70A      0.437743  
      71A      0.438219    72A      0.442007    73A      0.460200  
      74A      0.475555    75A      0.490012    76A      0.492357  
      77A      0.497072    78A      0.516302    79A      0.524763  
      80A      0.537262    81A      0.541527    82A      0.543400  
      83A      0.553487    84A      0.559440    85A      0.569742  
      86A      0.583791    87A      0.586639    88A      0.602101  
      89A      0.616099    90A      0.618233    91A      0.636047  
      92A      0.636851    93A      0.640311    94A      0.649301  
      95A      0.666705    96A      0.674920    97A      0.684210  
      98A      0.689763    99A      0.697190   100A      0.700627  
     101A      0.703571   102A      0.727963   103A      0.733289  
     104A      0.742748   105A      0.753436   106A      0.760151  
     107A      0.786972   108A      0.798460   109A      0.815613  
     110A      0.819936   111A      0.848067   112A      0.853581  
     113A      0.876833   114A      0.888007   115A      0.896207  
     116A      0.912403   117A      0.947413   118A      0.949697  
     119A      0.954375   120A      0.957919   121A      0.975698  
     122A      0.983144   123A      1.037730   124A      1.041547  
     125A      1.044966   126A      1.088819   127A      1.101839  
     128A      1.106200   129A      1.118367   130A      1.157520  
     131A      1.162321   132A      1.172141   133A      1.176359  
     134A      1.190649   135A      1.236033   136A      1.260382  
     137A      1.269974   138A      1.272187   139A      1.319230  
     140A      1.329333   141A      1.358181   142A      1.383825  
     143A      1.390440   144A      1.396009   145A      1.412451  
     146A      1.434406   147A      1.458095   148A      1.462795  
     149A      1.467399   150A      1.467976   151A      1.469279  
     152A      1.537301   153A      1.546014   154A      1.569048  
     155A      1.635048   156A      1.649915   157A      1.683480  
     158A      1.715101   159A      1.717229   160A      1.755800  
     161A      1.772884   162A      1.799738   163A      1.848039  
     164A      1.865503   165A      1.882751   166A      1.883811  
     167A      1.936879   168A      1.966454   169A      1.979453  
     170A      2.026298   171A      2.037642   172A      2.070612  
     173A      2.122848   174A      2.172049   175A      2.193137  
     176A      2.244771   177A      2.250750   178A      2.253643  
     179A      2.264830   180A      2.272354   181A      2.273751  
     182A      2.302855   183A      2.312246   184A      2.336472  
     185A      2.339004   186A      2.361995   187A      2.376360  
     188A      2.379604   189A      2.430330   190A      2.438663  
     191A      2.466970   192A      2.505642   193A      2.536303  
     194A      2.585814   195A      2.623585   196A      2.652307  
     197A      2.664518   198A      2.698202   199A      2.754238  
     200A      2.783681   201A      2.786074   202A      2.824092  
     203A      2.833647   204A      2.886121   205A      2.915849  
     206A      2.974291   207A      3.001602   208A      3.016316  
     209A      3.042590   210A      3.178935   211A      3.182323  
     212A      3.278510   213A      3.310597   214A      3.346124  
     215A      3.356787   216A      3.431387   217A      3.486632  
     218A      3.662677   219A      3.666705   220A      3.690423  
     221A      3.736441   222A      3.739961   223A      3.759662  
     224A      3.790324   225A      3.805251   226A      3.900417  
     227A      4.025989   228A      4.050368   229A      4.142340  
     230A      4.153567   231A      4.309953   232A      4.504828  
     233A      4.616795   234A      4.724867   235A      4.925801  
     236A      4.969645   237A      4.977916   238A      5.001552  
     239A      5.016775   240A      5.033658   241A      5.052451  
     242A      5.221936   243A      5.244153   244A      5.615149  
     245A      5.661139   246A      5.791243   247A      5.868947  
     248A      6.052709   249A      6.228757   250A      6.520716  
     251A      6.790199   252A      7.092882   253A     18.346224  
     254A     18.940716   255A     33.525437   256A     33.563516  

    Final Occupation by Irrep:
              A 
    DOCC [    16 ]

  @DF-RHF Final Energy:  -227.84408589403841

   => Energetics <=

    Nuclear Repulsion Energy =            121.7484302959175864
    One-Electron Energy =                -552.7483715897675438
    Two-Electron Energy =                 203.1558553998115144
    Total Energy =                       -227.8440858940384146

Computation Completed


Properties will be evaluated at   0.000000,   0.000000,   0.000000 [a0]

Properties computed using the SCF density matrix

  Nuclear Dipole Moment: [e a0]
     X:   151.7145      Y:   427.0876      Z:  -809.4945

  Electronic Dipole Moment: [e a0]
     X:  -152.5426      Y:  -426.8047      Z:   809.4113

  Dipole Moment: [e a0]
     X:    -0.8281      Y:     0.2829      Z:    -0.0832     Total:     0.8790

  Dipole Moment: [D]
     X:    -2.1048      Y:     0.7191      Z:    -0.2116     Total:     2.2342


*** tstop() called on ds1 at Wed Sep  1 14:13:55 2021
Module time:
	user time   =      10.74 seconds =       0.18 minutes
	system time =       0.16 seconds =       0.00 minutes
	total time  =          2 seconds =       0.03 minutes
Total time:
	user time   =      36.49 seconds =       0.61 minutes
	system time =       0.80 seconds =       0.01 minutes
	total time  =          8 seconds =       0.13 minutes
  Constructing Basis Sets for SAPT...

   => Loading Basis Set <=

    Name: (AUG-CC-PVDZ AUX)
    Role: RIFIT
    Keyword: DF_BASIS_SAPT
    atoms 1-2, 9-10  entry O          line   204 file /theoryfs2/ds/csargent/miniconda3/envs/cle/share/psi4/basis/aug-cc-pvdz-ri.gbs 
    atoms 3-6, 11-14 entry H          line    30 file /theoryfs2/ds/csargent/miniconda3/envs/cle/share/psi4/basis/aug-cc-pvdz-ri.gbs 
    atoms 7-8, 15-16 entry C          line   112 file /theoryfs2/ds/csargent/miniconda3/envs/cle/share/psi4/basis/aug-cc-pvdz-ri.gbs 


  //>>>>>>>>>>>>>>>>>>>>>>>>>>>>>>>>>>>//
  //               SAPT0               //
  //<<<<<<<<<<<<<<<<<<<<<<<<<<<<<<<<<<<//


*** tstart() called on ds1
*** at Wed Sep  1 14:13:55 2021

        SAPT0  
    Ed Hohenstein
     6 June 2009

      Orbital Information
  --------------------------
    NSO        =       256
    NMO        =       256
    NRI        =       760
    NOCC A     =        16
    NOCC B     =        16
    FOCC A     =         4
    FOCC B     =         4
    NVIR A     =       240
    NVIR B     =       240

    Elst10,r            =    -0.000015252557 [Eh]
    Exch10              =    -0.000000000000 [Eh]
    Exch10 (S^2)        =    -0.000000000000 [Eh]

    Iter     Energy [mEh]          dE [mEh]         Residual      Time [s]
       1      -0.00002091       0.000020913       0.041423444             0
       2      -0.00002116       0.000000248       0.015556365             0
       3      -0.00002318       0.000002019       0.005869445             0
       4      -0.00002359       0.000000407       0.001512155             0
       5      -0.00002346      -0.000000128       0.000629709             0
       6      -0.00002345      -0.000000008       0.000214829             1
       7      -0.00002346       0.000000009       0.000069536             1
       8      -0.00002346       0.000000002       0.000018392             1
       9      -0.00002346      -0.000000000       0.000005194             1
      10      -0.00002346      -0.000000000       0.000001368             1
      11      -0.00002346       0.000000000       0.000000482             1

    CHF Iterations converged


    Iter     Energy [mEh]          dE [mEh]         Residual      Time [s]
       1      -0.00001459       0.000014586       0.034150792             0
       2      -0.00001484       0.000000257       0.013175188             0
       3      -0.00001637       0.000001528       0.003914751             0
       4      -0.00001657       0.000000201       0.001096720             0
       5      -0.00001653      -0.000000041       0.000634877             0
       6      -0.00001651      -0.000000025       0.000168881             0
       7      -0.00001651       0.000000008       0.000046458             0
       8      -0.00001652       0.000000001       0.000009664             1
       9      -0.00001651      -0.000000000       0.000003298             1
      10      -0.00001651      -0.000000000       0.000001350             1
      11      -0.00001651       0.000000000       0.000000457             1

    CHF Iterations converged

    Ind20,r (A<-B)      =    -0.000000023461 [Eh]
    Ind20,r (B<-A)      =    -0.000000016515 [Eh]
    Ind20,r             =    -0.000000039976 [Eh]
    Exch-Ind20,r (A<-B) =     0.000000000000 [Eh]
    Exch-Ind20,r (B<-A) =     0.000000000000 [Eh]
    Exch-Ind20,r        =     0.000000000000 [Eh]
    Disp20              =    -0.000000780023 [Eh]
    Disp20 (SS)         =    -0.000000390012 [Eh]
    Disp20 (OS)         =    -0.000000390012 [Eh]
    Exch-Disp20         =     0.000000000000 [Eh]
    Exch-Disp20 (SS)    =     0.000000000000 [Eh]
    Exch-Disp20 (OS)    =     0.000000000000 [Eh]

    SAPT Results 
  --------------------------------------------------------------------------------------------------------
    Electrostatics                 -0.01525256 [mEh]      -0.00957112 [kcal/mol]      -0.04004558 [kJ/mol]
      Elst10,r                     -0.01525256 [mEh]      -0.00957112 [kcal/mol]      -0.04004558 [kJ/mol]

    Exchange                       -0.00000000 [mEh]      -0.00000000 [kcal/mol]      -0.00000000 [kJ/mol]
      Exch10                       -0.00000000 [mEh]      -0.00000000 [kcal/mol]      -0.00000000 [kJ/mol]
      Exch10(S^2)                  -0.00000000 [mEh]      -0.00000000 [kcal/mol]      -0.00000000 [kJ/mol]

    Induction                      -0.00006347 [mEh]      -0.00003983 [kcal/mol]      -0.00016665 [kJ/mol]
      Ind20,r                      -0.00003998 [mEh]      -0.00002509 [kcal/mol]      -0.00010496 [kJ/mol]
      Exch-Ind20,r                  0.00000000 [mEh]       0.00000000 [kcal/mol]       0.00000000 [kJ/mol]
      delta HF,r (2)               -0.00002350 [mEh]      -0.00001474 [kcal/mol]      -0.00006169 [kJ/mol]

    Dispersion                     -0.00078002 [mEh]      -0.00048947 [kcal/mol]      -0.00204795 [kJ/mol]
      Disp20                       -0.00078002 [mEh]      -0.00048947 [kcal/mol]      -0.00204795 [kJ/mol]
      Exch-Disp20                   0.00000000 [mEh]       0.00000000 [kcal/mol]       0.00000000 [kJ/mol]
      Disp20 (SS)                  -0.00039001 [mEh]      -0.00024474 [kcal/mol]      -0.00102398 [kJ/mol]
      Disp20 (OS)                  -0.00039001 [mEh]      -0.00024474 [kcal/mol]      -0.00102398 [kJ/mol]
      Exch-Disp20 (SS)              0.00000000 [mEh]       0.00000000 [kcal/mol]       0.00000000 [kJ/mol]
      Exch-Disp20 (OS)              0.00000000 [mEh]       0.00000000 [kcal/mol]       0.00000000 [kJ/mol]

  Total HF                         -0.01531603 [mEh]      -0.00961095 [kcal/mol]      -0.04021223 [kJ/mol]
  Total SAPT0                      -0.01609605 [mEh]      -0.01010043 [kcal/mol]      -0.04226018 [kJ/mol]

  Special recipe for scaled SAPT0 (see Manual):
    Electrostatics sSAPT0          -0.01525256 [mEh]      -0.00957112 [kcal/mol]      -0.04004558 [kJ/mol]
    Exchange sSAPT0                -0.00000000 [mEh]      -0.00000000 [kcal/mol]      -0.00000000 [kJ/mol]
    Induction sSAPT0               -0.00006347 [mEh]      -0.00003983 [kcal/mol]      -0.00016665 [kJ/mol]
    Dispersion sSAPT0              -0.00078002 [mEh]      -0.00048947 [kcal/mol]      -0.00204795 [kJ/mol]
  Total sSAPT0                     -0.01609605 [mEh]      -0.01010043 [kcal/mol]      -0.04226018 [kJ/mol]
  --------------------------------------------------------------------------------------------------------

*** tstop() called on ds1 at Wed Sep  1 14:14:01 2021
Module time:
	user time   =      28.02 seconds =       0.47 minutes
	system time =       2.51 seconds =       0.04 minutes
	total time  =          6 seconds =       0.10 minutes
Total time:
	user time   =      65.22 seconds =       1.09 minutes
	system time =       3.33 seconds =       0.06 minutes
	total time  =         14 seconds =       0.23 minutes


Warning! sapt0 does not have an associated derived wavefunction.The returned wavefunction is the dimer SCF wavefunction.


    Psi4 stopped on: Wednesday, 01 September 2021 02:14PM
    Psi4 wall time for execution: 0:00:14.22

*** Psi4 exiting successfully. Buy a developer a beer!
