
    -----------------------------------------------------------------------
          Psi4: An Open-Source Ab Initio Electronic Structure Package
                               Psi4 1.4rc3 

                         Git: Rev {HEAD} 080dba6 


    D. G. A. Smith, L. A. Burns, A. C. Simmonett, R. M. Parrish,
    M. C. Schieber, R. Galvelis, P. Kraus, H. Kruse, R. Di Remigio,
    A. Alenaizan, A. M. James, S. Lehtola, J. P. Misiewicz, M. Scheurer,
    R. A. Shaw, J. B. Schriber, Y. Xie, Z. L. Glick, D. A. Sirianni,
    J. S. O'Brien, J. M. Waldrop, A. Kumar, E. G. Hohenstein,
    B. P. Pritchard, B. R. Brooks, H. F. Schaefer III, A. Yu. Sokolov,
    K. Patkowski, A. E. DePrince III, U. Bozkaya, R. A. King,
    F. A. Evangelista, J. M. Turney, T. D. Crawford, C. D. Sherrill,
    J. Chem. Phys. 152(18) 184108 (2020). https://doi.org/10.1063/5.0006002

                            Additional Code Authors
    E. T. Seidl, C. L. Janssen, E. F. Valeev, M. L. Leininger,
    J. F. Gonthier, R. M. Richard, H. R. McAlexander, M. Saitow, X. Wang,
    P. Verma, and M. H. Lechner

             Previous Authors, Complete List of Code Contributors,
                       and Citations for Specific Modules
    https://github.com/psi4/psi4/blob/master/codemeta.json
    https://github.com/psi4/psi4/graphs/contributors
    http://psicode.org/psi4manual/master/introduction.html#citing-psifour

    -----------------------------------------------------------------------


    Psi4 started on: Wednesday, 01 September 2021 01:18PM

    Process ID: 17954
    Host:       ds1
    PSIDATADIR: /theoryfs2/ds/csargent/miniconda3/envs/cle/share/psi4
    Memory:     500.0 MiB
    Threads:    6
    
  ==> Input File <==

--------------------------------------------------------------------------
# PSI4 file produced by CrystaLattE

# Generated from:               acetic_acid.xyz
# Psithon input for N-mer:      2mer-0+203
# Number of atoms per monomer:  [8, 8]
# Number of replicas:           2
# COM priority:                 3.979256903864e-05
# Minimum COM separations:      15.500 
# Separation priority:          7.139154852511e-05
# Minimum monomer separations:  12.756 
# Cutoff priority:              2.961618195040e-06
# Nuclear repulsion energy:     278.54720545511435

memory 7 GB

molecule Dimer_0_203 {
  O           -5.53102237       2.93940290       1.97762624 
  O           -2.40708886       0.90817734       0.04905909 
  H           -0.50304887       1.37579205       4.63880908 
  H            0.00000000       4.25104285       3.09072238 
  H           -2.38948215       4.01916779       5.40195041 
  H           -3.74771411       0.47147930      -1.21557512 
  C           -1.41859782       2.98500500       3.84405190 
  C           -3.32263781       2.28628814       1.91221413 
--
  O          -18.10724422      16.53810254     -19.82641174 
  O          -14.98331071      18.56932810     -21.75497890 
  H          -13.07927073      18.10171339     -17.16522890 
  H          -12.57622185      15.22646259     -18.71331560 
  H          -14.96570400      15.45833765     -16.40208757 
  H          -16.32393596      19.00602614     -23.01961310 
  C          -13.99481968      16.49250044     -17.95998608 
  C          -15.89885966      17.19121730     -19.89182385 
units = au
no_com
no_reorient
}

set {
  e_convergence 10
  d_convergence 10
  scf_type df
  mp2_type df
  cc_type df
  freeze_core true
}

energy('sapt0/aug-cc-pvdz')

--------------------------------------------------------------------------

  Memory set to   6.519 GiB by Python driver.

Scratch directory: /scratch/csargent/psi4.17562.33784/

Scratch directory: /scratch/csargent/psi4.17562.33784/

  //>>>>>>>>>>>>>>>>>>>>>>>>>>>>>>>>>>>//
  //              Dimer HF             //
  //<<<<<<<<<<<<<<<<<<<<<<<<<<<<<<<<<<<//


*** tstart() called on ds1
*** at Wed Sep  1 13:18:13 2021

   => Loading Basis Set <=

    Name: AUG-CC-PVDZ
    Role: ORBITAL
    Keyword: BASIS
    atoms 1-2, 9-10  entry O          line   254 file /theoryfs2/ds/csargent/miniconda3/envs/cle/share/psi4/basis/aug-cc-pvdz.gbs 
    atoms 3-6, 11-14 entry H          line    40 file /theoryfs2/ds/csargent/miniconda3/envs/cle/share/psi4/basis/aug-cc-pvdz.gbs 
    atoms 7-8, 15-16 entry C          line   182 file /theoryfs2/ds/csargent/miniconda3/envs/cle/share/psi4/basis/aug-cc-pvdz.gbs 


         ---------------------------------------------------------
                                   SCF
               by Justin Turney, Rob Parrish, Andy Simmonett
                          and Daniel G. A. Smith
                              RHF Reference
                        6 Threads,   6675 MiB Core
         ---------------------------------------------------------

  ==> Geometry <==

    Molecular point group: c1
    Full point group: C1

    Geometry (in Bohr), charge = 0, multiplicity = 1:

       Center              X                  Y                   Z               Mass       
    ------------   -----------------  -----------------  -----------------  -----------------
         O           -5.531022370000     2.939402900000     1.977626240000    15.994914619570
         O           -2.407088860000     0.908177340000     0.049059090000    15.994914619570
         H           -0.503048870000     1.375792050000     4.638809080000     1.007825032230
         H            0.000000000000     4.251042850000     3.090722380000     1.007825032230
         H           -2.389482150000     4.019167790000     5.401950410000     1.007825032230
         H           -3.747714110000     0.471479300000    -1.215575120000     1.007825032230
         C           -1.418597820000     2.985005000000     3.844051900000    12.000000000000
         C           -3.322637810000     2.286288140000     1.912214130000    12.000000000000
         O          -18.107244220000    16.538102540000   -19.826411740000    15.994914619570
         O          -14.983310710000    18.569328100000   -21.754978900000    15.994914619570
         H          -13.079270730000    18.101713390000   -17.165228900000     1.007825032230
         H          -12.576221850000    15.226462590000   -18.713315600000     1.007825032230
         H          -14.965704000000    15.458337650000   -16.402087570000     1.007825032230
         H          -16.323935960000    19.006026140000   -23.019613100000     1.007825032230
         C          -13.994819680000    16.492500440000   -17.959986080000    12.000000000000
         C          -15.898859660000    17.191217300000   -19.891823850000    12.000000000000

  Running in c1 symmetry.

  Rotational constants: A =      0.04410  B =      0.00105  C =      0.00104 [cm^-1]
  Rotational constants: A =   1321.99194  B =     31.58149  C =     31.05976 [MHz]
  Nuclear repulsion =  278.547205467252638

  Charge       = 0
  Multiplicity = 1
  Electrons    = 64
  Nalpha       = 32
  Nbeta        = 32

  ==> Algorithm <==

  SCF Algorithm Type is DF.
  DIIS enabled.
  MOM disabled.
  Fractional occupation disabled.
  Guess Type is SAD.
  Energy threshold   = 1.00e-10
  Density threshold  = 1.00e-10
  Integral threshold = 1.00e-12

  ==> Primary Basis <==

  Basis Set: AUG-CC-PVDZ
    Blend: AUG-CC-PVDZ
    Number of shells: 112
    Number of basis functions: 256
    Number of Cartesian functions: 272
    Spherical Harmonics?: true
    Max angular momentum: 2

   => Loading Basis Set <=

    Name: (AUG-CC-PVDZ AUX)
    Role: JKFIT
    Keyword: DF_BASIS_SCF
    atoms 1-2, 9-10  entry O          line   270 file /theoryfs2/ds/csargent/miniconda3/envs/cle/share/psi4/basis/aug-cc-pvdz-jkfit.gbs 
    atoms 3-6, 11-14 entry H          line    70 file /theoryfs2/ds/csargent/miniconda3/envs/cle/share/psi4/basis/aug-cc-pvdz-jkfit.gbs 
    atoms 7-8, 15-16 entry C          line   154 file /theoryfs2/ds/csargent/miniconda3/envs/cle/share/psi4/basis/aug-cc-pvdz-jkfit.gbs 

  ==> Integral Setup <==

  ==> DiskDFJK: Density-Fitted J/K Matrices <==

    J tasked:                  Yes
    K tasked:                  Yes
    wK tasked:                  No
    OpenMP threads:              6
    Integrals threads:           6
    Memory [MiB]:             5006
    Algorithm:                Core
    Integral Cache:           SAVE
    Schwarz Cutoff:          1E-12
    Fitting Condition:       1E-10

   => Auxiliary Basis Set <=

  Basis Set: (AUG-CC-PVDZ AUX)
    Blend: AUG-CC-PVDZ-JKFIT
    Number of shells: 320
    Number of basis functions: 944
    Number of Cartesian functions: 1088
    Spherical Harmonics?: true
    Max angular momentum: 3

  Minimum eigenvalue in the overlap matrix is 1.0276186355E-04.
  Reciprocal condition number of the overlap matrix is 9.6526252147E-06.
    Using symmetric orthogonalization.

  ==> Pre-Iterations <==

  SCF Guess: Superposition of Atomic Densities via on-the-fly atomic UHF (no occupation information).

   -------------------------
    Irrep   Nso     Nmo    
   -------------------------
     A        256     256 
   -------------------------
    Total     256     256
   -------------------------

  ==> Iterations <==

                           Total Energy        Delta E     RMS |[F,P]|

   @DF-RHF iter SAD:  -453.97985886047081   -4.53980e+02   0.00000e+00 
   @DF-RHF iter   1:  -455.36179270558563   -1.38193e+00   3.22747e-03 DIIS
   @DF-RHF iter   2:  -455.60179728038929   -2.40005e-01   1.87375e-03 DIIS
   @DF-RHF iter   3:  -455.68262799667451   -8.08307e-02   3.30446e-04 DIIS
   @DF-RHF iter   4:  -455.68710256323874   -4.47457e-03   1.46198e-04 DIIS
   @DF-RHF iter   5:  -455.68806498148035   -9.62418e-04   3.42581e-05 DIIS
   @DF-RHF iter   6:  -455.68813935525009   -7.43738e-05   1.66603e-05 DIIS
   @DF-RHF iter   7:  -455.68815893997930   -1.95847e-05   5.43507e-06 DIIS
   @DF-RHF iter   8:  -455.68816210287446   -3.16290e-06   1.43658e-06 DIIS
   @DF-RHF iter   9:  -455.68816233621368   -2.33339e-07   3.01295e-07 DIIS
   @DF-RHF iter  10:  -455.68816234386253   -7.64885e-09   7.94561e-08 DIIS
   @DF-RHF iter  11:  -455.68816234427055   -4.08022e-10   2.54845e-08 DIIS
   @DF-RHF iter  12:  -455.68816234431432   -4.37694e-11   6.04673e-09 DIIS
   @DF-RHF iter  13:  -455.68816234431762   -3.29692e-12   1.33477e-09 DIIS
   @DF-RHF iter  14:  -455.68816234431716    4.54747e-13   6.16499e-10 DIIS
   @DF-RHF iter  15:  -455.68816234431711    5.68434e-14   2.09712e-10 DIIS
   @DF-RHF iter  16:  -455.68816234431733   -2.27374e-13   5.76674e-11 DIIS
  Energy and wave function converged.


  ==> Post-Iterations <==

    Orbital Energies [Eh]
    ---------------------

    Doubly Occupied:                                                      

       1A    -20.629883     2A    -20.629039     3A    -20.553195  
       4A    -20.552312     5A    -11.396499     6A    -11.395613  
       7A    -11.251362     8A    -11.250433     9A     -1.476255  
      10A     -1.475398    11A     -1.357881    12A     -1.357006  
      13A     -1.033387    14A     -1.032476    15A     -0.838331  
      16A     -0.837463    17A     -0.703458    18A     -0.702588  
      19A     -0.688858    20A     -0.687972    21A     -0.658148  
      22A     -0.657269    23A     -0.576929    24A     -0.576052  
      25A     -0.570092    26A     -0.569197    27A     -0.561787  
      28A     -0.560851    29A     -0.475737    30A     -0.474862  
      31A     -0.452822    32A     -0.451937  

    Virtual:                                                              

      33A      0.031795    34A      0.032634    35A      0.045203  
      36A      0.046116    37A      0.054654    38A      0.055494  
      39A      0.064331    40A      0.065496    41A      0.098398  
      42A      0.099337    43A      0.116940    44A      0.117407  
      45A      0.117781    46A      0.118325    47A      0.140155  
      48A      0.141054    49A      0.151574    50A      0.152428  
      51A      0.155974    52A      0.156931    53A      0.164159  
      54A      0.165108    55A      0.170941    56A      0.171844  
      57A      0.195918    58A      0.196819    59A      0.208830  
      60A      0.209644    61A      0.232948    62A      0.233796  
      63A      0.234594    64A      0.235501    65A      0.270475  
      66A      0.271412    67A      0.289927    68A      0.290781  
      69A      0.295396    70A      0.296296    71A      0.319438  
      72A      0.320286    73A      0.322373    74A      0.323260  
      75A      0.346881    76A      0.347789    77A      0.370276  
      78A      0.371169    79A      0.378473    80A      0.379363  
      81A      0.393738    82A      0.394634    83A      0.401010  
      84A      0.401938    85A      0.426282    86A      0.427170  
      87A      0.437842    88A      0.438755    89A      0.441597  
      90A      0.442508    91A      0.475160    92A      0.476021  
      93A      0.491955    94A      0.492852    95A      0.524378  
      96A      0.525295    97A      0.536889    98A      0.537819  
      99A      0.553096   100A      0.553994   101A      0.569364  
     102A      0.570325   103A      0.583404   104A      0.584331  
     105A      0.601700   106A      0.602563   107A      0.617845  
     108A      0.618754   109A      0.639918   110A      0.640796  
     111A      0.648903   112A      0.649818   113A      0.666314  
     114A      0.667200   115A      0.683820   116A      0.684746  
     117A      0.696798   118A      0.697694   119A      0.703191  
     120A      0.704109   121A      0.732900   122A      0.733785  
     123A      0.742352   124A      0.743255   125A      0.798073  
     126A      0.799005   127A      0.853191   128A      0.854081  
     129A      0.876442   130A      0.877317   131A      0.912009  
     132A      0.912898   133A      0.949293   134A      0.950178  
     135A      0.953977   136A      0.954871   137A      0.982748  
     138A      0.983632   139A      1.041148   140A      1.042019  
     141A      1.088427   142A      1.089348   143A      1.101448  
     144A      1.102356   145A      1.117985   146A      1.118906  
     147A      1.157118   148A      1.157979   149A      1.171741  
     150A      1.172610   151A      1.175967   152A      1.176853  
     153A      1.235631   154A      1.236485   155A      1.271794  
     156A      1.272669   157A      1.318838   158A      1.319723  
     159A      1.357793   160A      1.358681   161A      1.390058  
     162A      1.390956   163A      1.412060   164A      1.412969  
     165A      1.462405   166A      1.463267   167A      1.467579  
     168A      1.468434   169A      1.545628   170A      1.546545  
     171A      1.634641   172A      1.635533   173A      1.649523  
     174A      1.650401   175A      1.714705   176A      1.715592  
     177A      1.755408   178A      1.756308   179A      1.772498  
     180A      1.773415   181A      1.847647   182A      1.848542  
     183A      1.865111   184A      1.866018   185A      1.883424  
     186A      1.884346   187A      1.966053   188A      1.966926  
     189A      1.979060   190A      1.979945   191A      2.025911  
     192A      2.026818   193A      2.037244   194A      2.038129  
     195A      2.122454   196A      2.123341   197A      2.171654  
     198A      2.172541   199A      2.192745   200A      2.193644  
     201A      2.244384   202A      2.245309   203A      2.253250  
     204A      2.254144   205A      2.271964   206A      2.272856  
     207A      2.311854   208A      2.312749   209A      2.379213  
     210A      2.380115   211A      2.429934   212A      2.430813  
     213A      2.438271   214A      2.439177   215A      2.535914  
     216A      2.536813   217A      2.623195   218A      2.624086  
     219A      2.651923   220A      2.652852   221A      2.783295  
     222A      2.784217   223A      2.833257   224A      2.834153  
     225A      2.885729   226A      2.886638   227A      2.973890  
     228A      2.974770   229A      3.001216   230A      3.002112  
     231A      3.015923   232A      3.016817   233A      3.178537  
     234A      3.179411   235A      3.345728   236A      3.346612  
     237A      3.666299   238A      3.667147   239A      3.690017  
     240A      3.690865   241A      3.736041   242A      3.736901  
     243A      3.759270   244A      3.760149   245A      3.789929  
     246A      3.790800   247A      3.804860   248A      3.805736  
     249A      3.900019   250A      3.900880   251A      4.049975  
     252A      4.050846   253A      4.141949   254A      4.142820  
     255A      4.309548   256A      4.310396  

    Final Occupation by Irrep:
              A 
    DOCC [    32 ]

  @DF-RHF Final Energy:  -455.68816234431733

   => Energetics <=

    Nuclear Repulsion Energy =            278.5472054672526383
    One-Electron Energy =               -1175.6005533425604881
    Two-Electron Energy =                 441.3651855309905159
    Total Energy =                       -455.6881623443173339

Computation Completed


Properties will be evaluated at   0.000000,   0.000000,   0.000000 [a0]

Properties computed using the SCF density matrix

  Nuclear Dipole Moment: [e a0]
     X:  -599.6242      Y:   623.2802      Z:  -572.3952

  Electronic Dipole Moment: [e a0]
     X:   601.2794      Y:  -623.2812      Z:   572.2312

  Dipole Moment: [e a0]
     X:     1.6552      Y:    -0.0010      Z:    -0.1640     Total:     1.6633

  Dipole Moment: [D]
     X:     4.2070      Y:    -0.0026      Z:    -0.4169     Total:     4.2276


*** tstop() called on ds1 at Wed Sep  1 13:18:16 2021
Module time:
	user time   =      14.81 seconds =       0.25 minutes
	system time =       0.39 seconds =       0.01 minutes
	total time  =          3 seconds =       0.05 minutes
Total time:
	user time   =      14.81 seconds =       0.25 minutes
	system time =       0.39 seconds =       0.01 minutes
	total time  =          3 seconds =       0.05 minutes

  //>>>>>>>>>>>>>>>>>>>>>>>>>>>>>>>>>>>//
  //            Monomer A HF           //
  //<<<<<<<<<<<<<<<<<<<<<<<<<<<<<<<<<<<//


*** tstart() called on ds1
*** at Wed Sep  1 13:18:16 2021

   => Loading Basis Set <=

    Name: AUG-CC-PVDZ
    Role: ORBITAL
    Keyword: BASIS
    atoms 1-2, 9-10  entry O          line   254 file /theoryfs2/ds/csargent/miniconda3/envs/cle/share/psi4/basis/aug-cc-pvdz.gbs 
    atoms 3-6, 11-14 entry H          line    40 file /theoryfs2/ds/csargent/miniconda3/envs/cle/share/psi4/basis/aug-cc-pvdz.gbs 
    atoms 7-8, 15-16 entry C          line   182 file /theoryfs2/ds/csargent/miniconda3/envs/cle/share/psi4/basis/aug-cc-pvdz.gbs 


         ---------------------------------------------------------
                                   SCF
               by Justin Turney, Rob Parrish, Andy Simmonett
                          and Daniel G. A. Smith
                              RHF Reference
                        6 Threads,   6675 MiB Core
         ---------------------------------------------------------

  ==> Geometry <==

    Molecular point group: c1
    Full point group: C1

    Geometry (in Bohr), charge = 0, multiplicity = 1:

       Center              X                  Y                   Z               Mass       
    ------------   -----------------  -----------------  -----------------  -----------------
         O           -5.531022370000     2.939402900000     1.977626240000    15.994914619570
         O           -2.407088860000     0.908177340000     0.049059090000    15.994914619570
         H           -0.503048870000     1.375792050000     4.638809080000     1.007825032230
         H            0.000000000000     4.251042850000     3.090722380000     1.007825032230
         H           -2.389482150000     4.019167790000     5.401950410000     1.007825032230
         H           -3.747714110000     0.471479300000    -1.215575120000     1.007825032230
         C           -1.418597820000     2.985005000000     3.844051900000    12.000000000000
         C           -3.322637810000     2.286288140000     1.912214130000    12.000000000000
      Gh(O)         -18.107244220000    16.538102540000   -19.826411740000    15.994914619570
      Gh(O)         -14.983310710000    18.569328100000   -21.754978900000    15.994914619570
      Gh(H)         -13.079270730000    18.101713390000   -17.165228900000     1.007825032230
      Gh(H)         -12.576221850000    15.226462590000   -18.713315600000     1.007825032230
      Gh(H)         -14.965704000000    15.458337650000   -16.402087570000     1.007825032230
      Gh(H)         -16.323935960000    19.006026140000   -23.019613100000     1.007825032230
      Gh(C)         -13.994819680000    16.492500440000   -17.959986080000    12.000000000000
      Gh(C)         -15.898859660000    17.191217300000   -19.891823850000    12.000000000000

  Running in c1 symmetry.

  Rotational constants: A =      0.04410  B =      0.00105  C =      0.00104 [cm^-1]
  Rotational constants: A =   1321.99194  B =     31.58149  C =     31.05976 [MHz]
  Nuclear repulsion =  121.748430210971620

  Charge       = 0
  Multiplicity = 1
  Electrons    = 32
  Nalpha       = 16
  Nbeta        = 16

  ==> Algorithm <==

  SCF Algorithm Type is DF.
  DIIS enabled.
  MOM disabled.
  Fractional occupation disabled.
  Guess Type is SAD.
  Energy threshold   = 1.00e-10
  Density threshold  = 1.00e-10
  Integral threshold = 1.00e-12

  ==> Primary Basis <==

  Basis Set: AUG-CC-PVDZ
    Blend: AUG-CC-PVDZ
    Number of shells: 112
    Number of basis functions: 256
    Number of Cartesian functions: 272
    Spherical Harmonics?: true
    Max angular momentum: 2

   => Loading Basis Set <=

    Name: (AUG-CC-PVDZ AUX)
    Role: JKFIT
    Keyword: DF_BASIS_SCF
    atoms 1-2, 9-10  entry O          line   270 file /theoryfs2/ds/csargent/miniconda3/envs/cle/share/psi4/basis/aug-cc-pvdz-jkfit.gbs 
    atoms 3-6, 11-14 entry H          line    70 file /theoryfs2/ds/csargent/miniconda3/envs/cle/share/psi4/basis/aug-cc-pvdz-jkfit.gbs 
    atoms 7-8, 15-16 entry C          line   154 file /theoryfs2/ds/csargent/miniconda3/envs/cle/share/psi4/basis/aug-cc-pvdz-jkfit.gbs 

  ==> Integral Setup <==

  ==> DiskDFJK: Density-Fitted J/K Matrices <==

    J tasked:                  Yes
    K tasked:                  Yes
    wK tasked:                  No
    OpenMP threads:              6
    Integrals threads:           6
    Memory [MiB]:             5006
    Algorithm:                Core
    Integral Cache:           LOAD
    Schwarz Cutoff:          1E-12
    Fitting Condition:       1E-10

   => Auxiliary Basis Set <=

  Basis Set: (AUG-CC-PVDZ AUX)
    Blend: AUG-CC-PVDZ-JKFIT
    Number of shells: 320
    Number of basis functions: 944
    Number of Cartesian functions: 1088
    Spherical Harmonics?: true
    Max angular momentum: 3

  Minimum eigenvalue in the overlap matrix is 1.0276186355E-04.
  Reciprocal condition number of the overlap matrix is 9.6526252147E-06.
    Using symmetric orthogonalization.

  ==> Pre-Iterations <==

  SCF Guess: Superposition of Atomic Densities via on-the-fly atomic UHF (no occupation information).

   -------------------------
    Irrep   Nso     Nmo    
   -------------------------
     A        256     256 
   -------------------------
    Total     256     256
   -------------------------

  ==> Iterations <==

                           Total Energy        Delta E     RMS |[F,P]|

   @DF-RHF iter SAD:  -226.98992942972669   -2.26990e+02   0.00000e+00 
   @DF-RHF iter   1:  -227.68091168168999   -6.90982e-01   2.28211e-03 DIIS
   @DF-RHF iter   2:  -227.80091445463458   -1.20003e-01   1.32478e-03 DIIS
   @DF-RHF iter   3:  -227.84131987355605   -4.04054e-02   2.33581e-04 DIIS
   @DF-RHF iter   4:  -227.84355633704573   -2.23646e-03   1.03339e-04 DIIS
   @DF-RHF iter   5:  -227.84403723803797   -4.80901e-04   2.42136e-05 DIIS
   @DF-RHF iter   6:  -227.84407440603377   -3.71680e-05   1.17797e-05 DIIS
   @DF-RHF iter   7:  -227.84408419415971   -9.78813e-06   3.84272e-06 DIIS
   @DF-RHF iter   8:  -227.84408577574621   -1.58159e-06   1.01577e-06 DIIS
   @DF-RHF iter   9:  -227.84408589239649   -1.16650e-07   2.12953e-07 DIIS
   @DF-RHF iter  10:  -227.84408589621700   -3.82050e-09   5.61608e-08 DIIS
   @DF-RHF iter  11:  -227.84408589642072   -2.03727e-10   1.80147e-08 DIIS
   @DF-RHF iter  12:  -227.84408589644292   -2.21974e-11   4.26466e-09 DIIS
   @DF-RHF iter  13:  -227.84408589644408   -1.16529e-12   8.93569e-10 DIIS
   @DF-RHF iter  14:  -227.84408589644420   -1.13687e-13   2.86710e-10 DIIS
   @DF-RHF iter  15:  -227.84408589644423   -2.84217e-14   1.08058e-10 DIIS
   @DF-RHF iter  16:  -227.84408589644428   -5.68434e-14   2.86096e-11 DIIS
  Energy and wave function converged.


  ==> Post-Iterations <==

    Orbital Energies [Eh]
    ---------------------

    Doubly Occupied:                                                      

       1A    -20.629476     2A    -20.552804     3A    -11.396108  
       4A    -11.250979     5A     -1.475853     6A     -1.357486  
       7A     -1.032999     8A     -0.837930     9A     -0.703065  
      10A     -0.688465    11A     -0.657749    12A     -0.576538  
      13A     -0.569697    14A     -0.561403    15A     -0.475343  
      16A     -0.452434  

    Virtual:                                                              

      17A      0.025257    18A      0.032213    19A      0.045610  
      20A      0.047384    21A      0.055083    22A      0.055968  
      23A      0.057100    24A      0.064645    25A      0.086006  
      26A      0.098768    27A      0.105007    28A      0.112652  
      29A      0.117323    30A      0.117749    31A      0.118075  
      32A      0.140405    33A      0.141122    34A      0.141871  
      35A      0.147416    36A      0.151981    37A      0.156357  
      38A      0.164577    39A      0.171320    40A      0.176856  
      41A      0.196303    42A      0.206038    43A      0.209237  
      44A      0.215050    45A      0.226763    46A      0.233376  
      47A      0.234963    48A      0.244553    49A      0.260746  
      50A      0.265235    51A      0.270849    52A      0.277193  
      53A      0.285906    54A      0.290295    55A      0.295802  
      56A      0.319834    57A      0.322780    58A      0.332819  
      59A      0.336780    60A      0.347275    61A      0.370049  
      62A      0.370655    63A      0.378870    64A      0.394119  
      65A      0.399851    66A      0.401431    67A      0.410307  
      68A      0.426691    69A      0.431697    70A      0.438217  
      71A      0.438408    72A      0.442006    73A      0.460879  
      74A      0.475555    75A      0.490715    76A      0.492358  
      77A      0.497769    78A      0.517051    79A      0.524763  
      80A      0.537262    81A      0.542214    82A      0.544147  
      83A      0.553488    84A      0.560150    85A      0.569740  
      86A      0.583791    87A      0.587305    88A      0.602102  
      89A      0.616800    90A      0.618231    91A      0.636785  
      92A      0.637563    93A      0.640311    94A      0.649301  
      95A      0.666705    96A      0.675618    97A      0.684210  
      98A      0.690497    99A      0.697190   100A      0.701360  
     101A      0.703571   102A      0.728669   103A      0.733289  
     104A      0.742748   105A      0.754198   106A      0.760898  
     107A      0.787652   108A      0.798460   109A      0.816310  
     110A      0.820663   111A      0.848762   112A      0.853582  
     113A      0.876833   114A      0.888768   115A      0.896905  
     116A      0.912404   117A      0.948148   118A      0.949697  
     119A      0.954376   120A      0.958635   121A      0.976421  
     122A      0.983144   123A      1.038470   124A      1.041547  
     125A      1.045686   126A      1.088819   127A      1.101839  
     128A      1.106926   129A      1.118367   130A      1.157520  
     131A      1.163044   132A      1.172141   133A      1.176359  
     134A      1.191346   135A      1.236033   136A      1.261117  
     137A      1.270711   138A      1.272187   139A      1.319230  
     140A      1.330044   141A      1.358181   142A      1.384575  
     143A      1.390440   144A      1.396709   145A      1.412451  
     146A      1.435180   147A      1.458787   148A      1.462795  
     149A      1.467976   150A      1.468109   151A      1.469983  
     152A      1.538016   153A      1.546014   154A      1.569768  
     155A      1.635048   156A      1.649915   157A      1.684184  
     158A      1.715101   159A      1.717969   160A      1.755800  
     161A      1.772884   162A      1.800465   163A      1.848039  
     164A      1.865503   165A      1.883462   166A      1.883811  
     167A      1.937585   168A      1.966454   169A      1.979453  
     170A      2.026298   171A      2.037642   172A      2.071354  
     173A      2.122848   174A      2.172049   175A      2.193137  
     176A      2.244771   177A      2.251528   178A      2.253643  
     179A      2.265524   180A      2.272354   181A      2.274429  
     182A      2.303556   183A      2.312246   184A      2.337205  
     185A      2.339705   186A      2.362670   187A      2.377078  
     188A      2.379604   189A      2.430330   190A      2.438663  
     191A      2.467694   192A      2.506321   193A      2.536303  
     194A      2.586548   195A      2.623585   196A      2.652307  
     197A      2.665218   198A      2.698900   199A      2.754948  
     200A      2.783681   201A      2.786813   202A      2.824820  
     203A      2.833647   204A      2.886121   205A      2.916536  
     206A      2.974292   207A      3.001602   208A      3.016316  
     209A      3.043308   210A      3.178935   211A      3.183051  
     212A      3.279210   213A      3.311321   214A      3.346124  
     215A      3.357508   216A      3.432117   217A      3.487365  
     218A      3.663402   219A      3.666705   220A      3.690423  
     221A      3.736441   222A      3.740651   223A      3.759662  
     224A      3.790324   225A      3.805251   226A      3.900417  
     227A      4.026748   228A      4.050368   229A      4.142340  
     230A      4.154223   231A      4.309953   232A      4.505589  
     233A      4.617494   234A      4.725603   235A      4.926551  
     236A      4.970400   237A      4.978598   238A      5.002331  
     239A      5.017476   240A      5.034332   241A      5.053178  
     242A      5.222678   243A      5.244882   244A      5.615791  
     245A      5.661829   246A      5.791941   247A      5.869711  
     248A      6.053454   249A      6.229539   250A      6.521378  
     251A      6.790889   252A      7.093615   253A     18.346947  
     254A     18.941440   255A     33.526230   256A     33.564164  

    Final Occupation by Irrep:
              A 
    DOCC [    16 ]

  @DF-RHF Final Energy:  -227.84408589644428

   => Energetics <=

    Nuclear Repulsion Energy =            121.7484302109716197
    One-Electron Energy =                -552.7483714348020385
    Two-Electron Energy =                 203.1558553273861492
    Total Energy =                       -227.8440858964442839

Computation Completed


Properties will be evaluated at   0.000000,   0.000000,   0.000000 [a0]

Properties computed using the SCF density matrix

  Nuclear Dipole Moment: [e a0]
     X:   -98.5925      Y:    72.5259      Z:    62.6670

  Electronic Dipole Moment: [e a0]
     X:    99.4206      Y:   -72.8088      Z:   -62.7502

  Dipole Moment: [e a0]
     X:     0.8281      Y:    -0.2829      Z:    -0.0832     Total:     0.8790

  Dipole Moment: [D]
     X:     2.1048      Y:    -0.7191      Z:    -0.2116     Total:     2.2342


*** tstop() called on ds1 at Wed Sep  1 13:18:19 2021
Module time:
	user time   =      10.70 seconds =       0.18 minutes
	system time =       0.20 seconds =       0.00 minutes
	total time  =          3 seconds =       0.05 minutes
Total time:
	user time   =      25.72 seconds =       0.43 minutes
	system time =       0.60 seconds =       0.01 minutes
	total time  =          6 seconds =       0.10 minutes

  //>>>>>>>>>>>>>>>>>>>>>>>>>>>>>>>>>>>//
  //            Monomer B HF           //
  //<<<<<<<<<<<<<<<<<<<<<<<<<<<<<<<<<<<//


*** tstart() called on ds1
*** at Wed Sep  1 13:18:19 2021

   => Loading Basis Set <=

    Name: AUG-CC-PVDZ
    Role: ORBITAL
    Keyword: BASIS
    atoms 1-2, 9-10  entry O          line   254 file /theoryfs2/ds/csargent/miniconda3/envs/cle/share/psi4/basis/aug-cc-pvdz.gbs 
    atoms 3-6, 11-14 entry H          line    40 file /theoryfs2/ds/csargent/miniconda3/envs/cle/share/psi4/basis/aug-cc-pvdz.gbs 
    atoms 7-8, 15-16 entry C          line   182 file /theoryfs2/ds/csargent/miniconda3/envs/cle/share/psi4/basis/aug-cc-pvdz.gbs 


         ---------------------------------------------------------
                                   SCF
               by Justin Turney, Rob Parrish, Andy Simmonett
                          and Daniel G. A. Smith
                              RHF Reference
                        6 Threads,   6675 MiB Core
         ---------------------------------------------------------

  ==> Geometry <==

    Molecular point group: c1
    Full point group: C1

    Geometry (in Bohr), charge = 0, multiplicity = 1:

       Center              X                  Y                   Z               Mass       
    ------------   -----------------  -----------------  -----------------  -----------------
      Gh(O)          -5.531022370000     2.939402900000     1.977626240000    15.994914619570
      Gh(O)          -2.407088860000     0.908177340000     0.049059090000    15.994914619570
      Gh(H)          -0.503048870000     1.375792050000     4.638809080000     1.007825032230
      Gh(H)           0.000000000000     4.251042850000     3.090722380000     1.007825032230
      Gh(H)          -2.389482150000     4.019167790000     5.401950410000     1.007825032230
      Gh(H)          -3.747714110000     0.471479300000    -1.215575120000     1.007825032230
      Gh(C)          -1.418597820000     2.985005000000     3.844051900000    12.000000000000
      Gh(C)          -3.322637810000     2.286288140000     1.912214130000    12.000000000000
         O          -18.107244220000    16.538102540000   -19.826411740000    15.994914619570
         O          -14.983310710000    18.569328100000   -21.754978900000    15.994914619570
         H          -13.079270730000    18.101713390000   -17.165228900000     1.007825032230
         H          -12.576221850000    15.226462590000   -18.713315600000     1.007825032230
         H          -14.965704000000    15.458337650000   -16.402087570000     1.007825032230
         H          -16.323935960000    19.006026140000   -23.019613100000     1.007825032230
         C          -13.994819680000    16.492500440000   -17.959986080000    12.000000000000
         C          -15.898859660000    17.191217300000   -19.891823850000    12.000000000000

  Running in c1 symmetry.

  Rotational constants: A =      0.04410  B =      0.00105  C =      0.00104 [cm^-1]
  Rotational constants: A =   1321.99194  B =     31.58149  C =     31.05976 [MHz]
  Nuclear repulsion =  121.748430185117911

  Charge       = 0
  Multiplicity = 1
  Electrons    = 32
  Nalpha       = 16
  Nbeta        = 16

  ==> Algorithm <==

  SCF Algorithm Type is DF.
  DIIS enabled.
  MOM disabled.
  Fractional occupation disabled.
  Guess Type is SAD.
  Energy threshold   = 1.00e-10
  Density threshold  = 1.00e-10
  Integral threshold = 1.00e-12

  ==> Primary Basis <==

  Basis Set: AUG-CC-PVDZ
    Blend: AUG-CC-PVDZ
    Number of shells: 112
    Number of basis functions: 256
    Number of Cartesian functions: 272
    Spherical Harmonics?: true
    Max angular momentum: 2

   => Loading Basis Set <=

    Name: (AUG-CC-PVDZ AUX)
    Role: JKFIT
    Keyword: DF_BASIS_SCF
    atoms 1-2, 9-10  entry O          line   270 file /theoryfs2/ds/csargent/miniconda3/envs/cle/share/psi4/basis/aug-cc-pvdz-jkfit.gbs 
    atoms 3-6, 11-14 entry H          line    70 file /theoryfs2/ds/csargent/miniconda3/envs/cle/share/psi4/basis/aug-cc-pvdz-jkfit.gbs 
    atoms 7-8, 15-16 entry C          line   154 file /theoryfs2/ds/csargent/miniconda3/envs/cle/share/psi4/basis/aug-cc-pvdz-jkfit.gbs 

  ==> Integral Setup <==

  ==> DiskDFJK: Density-Fitted J/K Matrices <==

    J tasked:                  Yes
    K tasked:                  Yes
    wK tasked:                  No
    OpenMP threads:              6
    Integrals threads:           6
    Memory [MiB]:             5006
    Algorithm:                Core
    Integral Cache:           LOAD
    Schwarz Cutoff:          1E-12
    Fitting Condition:       1E-10

   => Auxiliary Basis Set <=

  Basis Set: (AUG-CC-PVDZ AUX)
    Blend: AUG-CC-PVDZ-JKFIT
    Number of shells: 320
    Number of basis functions: 944
    Number of Cartesian functions: 1088
    Spherical Harmonics?: true
    Max angular momentum: 3

  Minimum eigenvalue in the overlap matrix is 1.0276186355E-04.
  Reciprocal condition number of the overlap matrix is 9.6526252147E-06.
    Using symmetric orthogonalization.

  ==> Pre-Iterations <==

  SCF Guess: Superposition of Atomic Densities via on-the-fly atomic UHF (no occupation information).

   -------------------------
    Irrep   Nso     Nmo    
   -------------------------
     A        256     256 
   -------------------------
    Total     256     256
   -------------------------

  ==> Iterations <==

                           Total Energy        Delta E     RMS |[F,P]|

   @DF-RHF iter SAD:  -226.98992942872408   -2.26990e+02   0.00000e+00 
   @DF-RHF iter   1:  -227.68091167718296   -6.90982e-01   2.28211e-03 DIIS
   @DF-RHF iter   2:  -227.80091445099322   -1.20003e-01   1.32478e-03 DIIS
   @DF-RHF iter   3:  -227.84131987081537   -4.04054e-02   2.33581e-04 DIIS
   @DF-RHF iter   4:  -227.84355633435342   -2.23646e-03   1.03339e-04 DIIS
   @DF-RHF iter   5:  -227.84403723535556   -4.80901e-04   2.42136e-05 DIIS
   @DF-RHF iter   6:  -227.84407440335136   -3.71680e-05   1.17797e-05 DIIS
   @DF-RHF iter   7:  -227.84408419147707   -9.78813e-06   3.84272e-06 DIIS
   @DF-RHF iter   8:  -227.84408577306357   -1.58159e-06   1.01577e-06 DIIS
   @DF-RHF iter   9:  -227.84408588971371   -1.16650e-07   2.12953e-07 DIIS
   @DF-RHF iter  10:  -227.84408589353438   -3.82067e-09   5.61608e-08 DIIS
   @DF-RHF iter  11:  -227.84408589373803   -2.03642e-10   1.80147e-08 DIIS
   @DF-RHF iter  12:  -227.84408589376017   -2.21405e-11   4.26466e-09 DIIS
   @DF-RHF iter  13:  -227.84408589376176   -1.59162e-12   8.93569e-10 DIIS
   @DF-RHF iter  14:  -227.84408589376162    1.42109e-13   2.86710e-10 DIIS
   @DF-RHF iter  15:  -227.84408589376170   -8.52651e-14   1.08059e-10 DIIS
   @DF-RHF iter  16:  -227.84408589376142    2.84217e-13   2.86098e-11 DIIS
  Energy and wave function converged.


  ==> Post-Iterations <==

    Orbital Energies [Eh]
    ---------------------

    Doubly Occupied:                                                      

       1A    -20.629476     2A    -20.552804     3A    -11.396108  
       4A    -11.250979     5A     -1.475853     6A     -1.357486  
       7A     -1.032999     8A     -0.837930     9A     -0.703065  
      10A     -0.688465    11A     -0.657749    12A     -0.576538  
      13A     -0.569697    14A     -0.561403    15A     -0.475343  
      16A     -0.452434  

    Virtual:                                                              

      17A      0.024372    18A      0.032214    19A      0.045596  
      20A      0.046487    21A      0.055075    22A      0.055131  
      23A      0.056152    24A      0.064645    25A      0.085042  
      26A      0.098769    27A      0.104202    28A      0.111770  
      29A      0.116993    30A      0.117323    31A      0.117857  
      32A      0.139994    33A      0.140545    34A      0.140984  
      35A      0.146478    36A      0.151977    37A      0.156357  
      38A      0.164581    39A      0.171320    40A      0.176005  
      41A      0.196303    42A      0.205210    43A      0.209237  
      44A      0.214223    45A      0.225880    46A      0.233376  
      47A      0.234963    48A      0.243667    49A      0.259854  
      50A      0.264417    51A      0.270849    52A      0.276296  
      53A      0.285067    54A      0.290295    55A      0.295802  
      56A      0.319834    57A      0.322781    58A      0.331881  
      59A      0.335865    60A      0.347275    61A      0.369094  
      62A      0.370652    63A      0.378870    64A      0.394119  
      65A      0.398905    66A      0.401432    67A      0.409397  
      68A      0.426688    69A      0.430783    70A      0.437521  
      71A      0.438218    72A      0.442008    73A      0.460060  
      74A      0.475555    75A      0.489846    76A      0.492358  
      77A      0.496897    78A      0.516158    79A      0.524763  
      80A      0.537262    81A      0.541376    82A      0.543205  
      83A      0.553487    84A      0.559245    85A      0.569741  
      86A      0.583791    87A      0.586419    88A      0.602101  
      89A      0.615943    90A      0.618232    91A      0.635884  
      92A      0.636672    93A      0.640311    94A      0.649301  
      95A      0.666705    96A      0.674738    97A      0.684210  
      98A      0.689579    99A      0.697190   100A      0.700434  
     101A      0.703571   102A      0.727743   103A      0.733289  
     104A      0.742748   105A      0.753279   106A      0.759950  
     107A      0.786766   108A      0.798460   109A      0.815393  
     110A      0.819735   111A      0.847860   112A      0.853581  
     113A      0.876833   114A      0.887820   115A      0.896023  
     116A      0.912404   117A      0.947245   118A      0.949697  
     119A      0.954375   120A      0.957735   121A      0.975531  
     122A      0.983144   123A      1.037583   124A      1.041547  
     125A      1.044813   126A      1.088819   127A      1.101839  
     128A      1.106037   129A      1.118368   130A      1.157520  
     131A      1.162181   132A      1.172141   133A      1.176359  
     134A      1.190491   135A      1.236033   136A      1.260263  
     137A      1.269853   138A      1.272187   139A      1.319230  
     140A      1.329186   141A      1.358182   142A      1.383711  
     143A      1.390440   144A      1.395863   145A      1.412451  
     146A      1.434300   147A      1.457950   148A      1.462795  
     149A      1.467257   150A      1.467976   151A      1.469130  
     152A      1.537157   153A      1.546014   154A      1.568909  
     155A      1.635048   156A      1.649915   157A      1.683318  
     158A      1.715101   159A      1.717097   160A      1.755800  
     161A      1.772884   162A      1.799605   163A      1.848039  
     164A      1.865503   165A      1.882517   166A      1.883811  
     167A      1.936668   168A      1.966454   169A      1.979453  
     170A      2.026298   171A      2.037643   172A      2.070418  
     173A      2.122849   174A      2.172049   175A      2.193137  
     176A      2.244771   177A      2.250556   178A      2.253643  
     179A      2.264604   180A      2.272354   181A      2.273579  
     182A      2.302639   183A      2.312246   184A      2.336246  
     185A      2.338785   186A      2.361779   187A      2.376188  
     188A      2.379604   189A      2.430331   190A      2.438663  
     191A      2.466810   192A      2.505485   193A      2.536303  
     194A      2.585646   195A      2.623585   196A      2.652307  
     197A      2.664344   198A      2.697990   199A      2.754029  
     200A      2.783681   201A      2.785885   202A      2.823889  
     203A      2.833647   204A      2.886121   205A      2.915666  
     206A      2.974291   207A      3.001602   208A      3.016316  
     209A      3.042405   210A      3.178935   211A      3.182135  
     212A      3.278298   213A      3.310407   214A      3.346124  
     215A      3.356594   216A      3.431221   217A      3.486433  
     218A      3.662506   219A      3.666705   220A      3.690423  
     221A      3.736441   222A      3.739804   223A      3.759662  
     224A      3.790324   225A      3.805251   226A      3.900417  
     227A      4.025861   228A      4.050368   229A      4.142340  
     230A      4.153405   231A      4.309953   232A      4.504718  
     233A      4.616644   234A      4.724687   235A      4.925688  
     236A      4.969529   237A      4.977764   238A      5.001458  
     239A      5.016629   240A      5.033496   241A      5.052251  
     242A      5.221790   243A      5.243981   244A      5.614975  
     245A      5.660988   246A      5.791101   247A      5.868837  
     248A      6.052589   249A      6.228658   250A      6.520553  
     251A      6.790052   252A      7.092757   253A     18.346035  
     254A     18.940536   255A     33.525349   256A     33.563348  

    Final Occupation by Irrep:
              A 
    DOCC [    16 ]

  @DF-RHF Final Energy:  -227.84408589376142

   => Energetics <=

    Nuclear Repulsion Energy =            121.7484301851179112
    One-Electron Energy =                -552.7483713736640993
    Two-Electron Energy =                 203.1558552947847716
    Total Energy =                       -227.8440858937614166

Computation Completed


Properties will be evaluated at   0.000000,   0.000000,   0.000000 [a0]

Properties computed using the SCF density matrix

  Nuclear Dipole Moment: [e a0]
     X:  -501.0316      Y:   550.7543      Z:  -635.0622

  Electronic Dipole Moment: [e a0]
     X:   501.8597      Y:  -550.4714      Z:   634.9790

  Dipole Moment: [e a0]
     X:     0.8281      Y:     0.2829      Z:    -0.0832     Total:     0.8790

  Dipole Moment: [D]
     X:     2.1048      Y:     0.7191      Z:    -0.2116     Total:     2.2342


*** tstop() called on ds1 at Wed Sep  1 13:18:21 2021
Module time:
	user time   =      10.77 seconds =       0.18 minutes
	system time =       0.20 seconds =       0.00 minutes
	total time  =          2 seconds =       0.03 minutes
Total time:
	user time   =      36.73 seconds =       0.61 minutes
	system time =       0.81 seconds =       0.01 minutes
	total time  =          8 seconds =       0.13 minutes
  Constructing Basis Sets for SAPT...

   => Loading Basis Set <=

    Name: (AUG-CC-PVDZ AUX)
    Role: RIFIT
    Keyword: DF_BASIS_SAPT
    atoms 1-2, 9-10  entry O          line   204 file /theoryfs2/ds/csargent/miniconda3/envs/cle/share/psi4/basis/aug-cc-pvdz-ri.gbs 
    atoms 3-6, 11-14 entry H          line    30 file /theoryfs2/ds/csargent/miniconda3/envs/cle/share/psi4/basis/aug-cc-pvdz-ri.gbs 
    atoms 7-8, 15-16 entry C          line   112 file /theoryfs2/ds/csargent/miniconda3/envs/cle/share/psi4/basis/aug-cc-pvdz-ri.gbs 


  //>>>>>>>>>>>>>>>>>>>>>>>>>>>>>>>>>>>//
  //               SAPT0               //
  //<<<<<<<<<<<<<<<<<<<<<<<<<<<<<<<<<<<//


*** tstart() called on ds1
*** at Wed Sep  1 13:18:21 2021

        SAPT0  
    Ed Hohenstein
     6 June 2009

      Orbital Information
  --------------------------
    NSO        =       256
    NMO        =       256
    NRI        =       760
    NOCC A     =        16
    NOCC B     =        16
    FOCC A     =         4
    FOCC B     =         4
    NVIR A     =       240
    NVIR B     =       240

    Elst10,r            =     0.000009547858 [Eh]
    Exch10              =    -0.000000000000 [Eh]
    Exch10 (S^2)        =    -0.000000000000 [Eh]

    Iter     Energy [mEh]          dE [mEh]         Residual      Time [s]
       1      -0.00002579       0.000025787       0.039872846             0
       2      -0.00002473      -0.000001062       0.011833935             0
       3      -0.00002600       0.000001270       0.005711867             0
       4      -0.00002657       0.000000579       0.000876231             0
       5      -0.00002648      -0.000000090       0.000280601             0
       6      -0.00002649       0.000000003       0.000130904             0
       7      -0.00002649       0.000000004       0.000039221             0
       8      -0.00002649      -0.000000000       0.000013723             0
       9      -0.00002649      -0.000000000       0.000003905             0
      10      -0.00002649       0.000000000       0.000001091             1
      11      -0.00002649       0.000000000       0.000000279             1

    CHF Iterations converged


    Iter     Energy [mEh]          dE [mEh]         Residual      Time [s]
       1      -0.00004641       0.000046408       0.050620956             0
       2      -0.00004932       0.000002908       0.024016936             0
       3      -0.00005337       0.000004051       0.007126127             0
       4      -0.00005404       0.000000675       0.001488371             0
       5      -0.00005395      -0.000000090       0.000697452             0
       6      -0.00005390      -0.000000053       0.000199677             0
       7      -0.00005391       0.000000010       0.000084504             0
       8      -0.00005391       0.000000003       0.000018972             0
       9      -0.00005391      -0.000000001       0.000006398             0
      10      -0.00005391      -0.000000000       0.000002394             0
      11      -0.00005391       0.000000000       0.000000888             0

    CHF Iterations converged

    Ind20,r (A<-B)      =    -0.000000026491 [Eh]
    Ind20,r (B<-A)      =    -0.000000053911 [Eh]
    Ind20,r             =    -0.000000080401 [Eh]
    Exch-Ind20,r (A<-B) =     0.000000000000 [Eh]
    Exch-Ind20,r (B<-A) =     0.000000000000 [Eh]
    Exch-Ind20,r        =     0.000000000000 [Eh]
    Disp20              =    -0.000001016295 [Eh]
    Disp20 (SS)         =    -0.000000508148 [Eh]
    Disp20 (OS)         =    -0.000000508148 [Eh]
    Exch-Disp20         =     0.000000000000 [Eh]
    Exch-Disp20 (SS)    =     0.000000000000 [Eh]
    Exch-Disp20 (OS)    =     0.000000000000 [Eh]

    SAPT Results 
  --------------------------------------------------------------------------------------------------------
    Electrostatics                  0.00954786 [mEh]       0.00599137 [kcal/mol]       0.02506790 [kJ/mol]
      Elst10,r                      0.00954786 [mEh]       0.00599137 [kcal/mol]       0.02506790 [kJ/mol]

    Exchange                       -0.00000000 [mEh]      -0.00000000 [kcal/mol]      -0.00000000 [kJ/mol]
      Exch10                       -0.00000000 [mEh]      -0.00000000 [kcal/mol]      -0.00000000 [kJ/mol]
      Exch10(S^2)                  -0.00000000 [mEh]      -0.00000000 [kcal/mol]      -0.00000000 [kJ/mol]

    Induction                      -0.00010197 [mEh]      -0.00006399 [kcal/mol]      -0.00026772 [kJ/mol]
      Ind20,r                      -0.00008040 [mEh]      -0.00005045 [kcal/mol]      -0.00021109 [kJ/mol]
      Exch-Ind20,r                  0.00000000 [mEh]       0.00000000 [kcal/mol]       0.00000000 [kJ/mol]
      delta HF,r (2)               -0.00002157 [mEh]      -0.00001353 [kcal/mol]      -0.00005663 [kJ/mol]

    Dispersion                     -0.00101630 [mEh]      -0.00063773 [kcal/mol]      -0.00266828 [kJ/mol]
      Disp20                       -0.00101630 [mEh]      -0.00063773 [kcal/mol]      -0.00266828 [kJ/mol]
      Exch-Disp20                   0.00000000 [mEh]       0.00000000 [kcal/mol]       0.00000000 [kJ/mol]
      Disp20 (SS)                  -0.00050815 [mEh]      -0.00031887 [kcal/mol]      -0.00133414 [kJ/mol]
      Disp20 (OS)                  -0.00050815 [mEh]      -0.00031887 [kcal/mol]      -0.00133414 [kJ/mol]
      Exch-Disp20 (SS)              0.00000000 [mEh]       0.00000000 [kcal/mol]       0.00000000 [kJ/mol]
      Exch-Disp20 (OS)              0.00000000 [mEh]       0.00000000 [kcal/mol]       0.00000000 [kJ/mol]

  Total HF                          0.00944589 [mEh]       0.00592738 [kcal/mol]       0.02480018 [kJ/mol]
  Total SAPT0                       0.00842959 [mEh]       0.00528965 [kcal/mol]       0.02213189 [kJ/mol]

  Special recipe for scaled SAPT0 (see Manual):
    Electrostatics sSAPT0           0.00954786 [mEh]       0.00599137 [kcal/mol]       0.02506790 [kJ/mol]
    Exchange sSAPT0                -0.00000000 [mEh]      -0.00000000 [kcal/mol]      -0.00000000 [kJ/mol]
    Induction sSAPT0               -0.00010197 [mEh]      -0.00006399 [kcal/mol]      -0.00026772 [kJ/mol]
    Dispersion sSAPT0              -0.00101630 [mEh]      -0.00063773 [kcal/mol]      -0.00266828 [kJ/mol]
  Total sSAPT0                      0.00842959 [mEh]       0.00528965 [kcal/mol]       0.02213189 [kJ/mol]
  --------------------------------------------------------------------------------------------------------

*** tstop() called on ds1 at Wed Sep  1 13:18:27 2021
Module time:
	user time   =      28.04 seconds =       0.47 minutes
	system time =       2.43 seconds =       0.04 minutes
	total time  =          6 seconds =       0.10 minutes
Total time:
	user time   =      65.62 seconds =       1.09 minutes
	system time =       3.26 seconds =       0.05 minutes
	total time  =         14 seconds =       0.23 minutes


Warning! sapt0 does not have an associated derived wavefunction.The returned wavefunction is the dimer SCF wavefunction.


    Psi4 stopped on: Wednesday, 01 September 2021 01:18PM
    Psi4 wall time for execution: 0:00:14.30

*** Psi4 exiting successfully. Buy a developer a beer!
