
    -----------------------------------------------------------------------
          Psi4: An Open-Source Ab Initio Electronic Structure Package
                               Psi4 1.4rc3 

                         Git: Rev {HEAD} 080dba6 


    D. G. A. Smith, L. A. Burns, A. C. Simmonett, R. M. Parrish,
    M. C. Schieber, R. Galvelis, P. Kraus, H. Kruse, R. Di Remigio,
    A. Alenaizan, A. M. James, S. Lehtola, J. P. Misiewicz, M. Scheurer,
    R. A. Shaw, J. B. Schriber, Y. Xie, Z. L. Glick, D. A. Sirianni,
    J. S. O'Brien, J. M. Waldrop, A. Kumar, E. G. Hohenstein,
    B. P. Pritchard, B. R. Brooks, H. F. Schaefer III, A. Yu. Sokolov,
    K. Patkowski, A. E. DePrince III, U. Bozkaya, R. A. King,
    F. A. Evangelista, J. M. Turney, T. D. Crawford, C. D. Sherrill,
    J. Chem. Phys. 152(18) 184108 (2020). https://doi.org/10.1063/5.0006002

                            Additional Code Authors
    E. T. Seidl, C. L. Janssen, E. F. Valeev, M. L. Leininger,
    J. F. Gonthier, R. M. Richard, H. R. McAlexander, M. Saitow, X. Wang,
    P. Verma, and M. H. Lechner

             Previous Authors, Complete List of Code Contributors,
                       and Citations for Specific Modules
    https://github.com/psi4/psi4/blob/master/codemeta.json
    https://github.com/psi4/psi4/graphs/contributors
    http://psicode.org/psi4manual/master/introduction.html#citing-psifour

    -----------------------------------------------------------------------


    Psi4 started on: Wednesday, 01 September 2021 01:26PM

    Process ID: 18339
    Host:       ds1
    PSIDATADIR: /theoryfs2/ds/csargent/miniconda3/envs/cle/share/psi4
    Memory:     500.0 MiB
    Threads:    6
    
  ==> Input File <==

--------------------------------------------------------------------------
# PSI4 file produced by CrystaLattE

# Generated from:               acetic_acid.xyz
# Psithon input for N-mer:      2mer-0+475
# Number of atoms per monomer:  [8, 8]
# Number of replicas:           2
# COM priority:                 1.497839593154e-05
# Minimum COM separations:      21.467 
# Separation priority:          2.594601165970e-05
# Minimum monomer separations:  17.875 
# Cutoff priority:              7.681171795414e-07
# Nuclear repulsion energy:     268.7902681904816

memory 7 GB

molecule Dimer_0_475 {
  O           -5.53102237       2.93940290       1.97762624 
  O           -2.40708886       0.90817734       0.04905909 
  H           -0.50304887       1.37579205       4.63880908 
  H            0.00000000       4.25104285       3.09072238 
  H           -2.38948215       4.01916779       5.40195041 
  H           -3.74771411       0.47147930      -1.21557512 
  C           -1.41859782       2.98500500       3.84405190 
  C           -3.32263781       2.28628814       1.91221413 
--
  O          -30.68346607     -20.24810357     -19.82641174 
  O          -27.55953256     -22.27932914     -21.75497890 
  H          -25.65549258     -21.81171443     -17.16522890 
  H          -25.15244370     -18.93646362     -18.71331560 
  H          -27.54192585     -19.16833869     -16.40208757 
  H          -28.90015781     -22.71602718     -23.01961310 
  C          -26.57104153     -20.20250148     -17.95998608 
  C          -28.47508152     -20.90121834     -19.89182385 
units = au
no_com
no_reorient
}

set {
  e_convergence 10
  d_convergence 10
  scf_type df
  mp2_type df
  cc_type df
  freeze_core true
}

energy('sapt0/aug-cc-pvdz')

--------------------------------------------------------------------------

  Memory set to   6.519 GiB by Python driver.

Scratch directory: /scratch/csargent/psi4.17562.33784/

Scratch directory: /scratch/csargent/psi4.17562.33784/

  //>>>>>>>>>>>>>>>>>>>>>>>>>>>>>>>>>>>//
  //              Dimer HF             //
  //<<<<<<<<<<<<<<<<<<<<<<<<<<<<<<<<<<<//


*** tstart() called on ds1
*** at Wed Sep  1 13:26:48 2021

   => Loading Basis Set <=

    Name: AUG-CC-PVDZ
    Role: ORBITAL
    Keyword: BASIS
    atoms 1-2, 9-10  entry O          line   254 file /theoryfs2/ds/csargent/miniconda3/envs/cle/share/psi4/basis/aug-cc-pvdz.gbs 
    atoms 3-6, 11-14 entry H          line    40 file /theoryfs2/ds/csargent/miniconda3/envs/cle/share/psi4/basis/aug-cc-pvdz.gbs 
    atoms 7-8, 15-16 entry C          line   182 file /theoryfs2/ds/csargent/miniconda3/envs/cle/share/psi4/basis/aug-cc-pvdz.gbs 


         ---------------------------------------------------------
                                   SCF
               by Justin Turney, Rob Parrish, Andy Simmonett
                          and Daniel G. A. Smith
                              RHF Reference
                        6 Threads,   6675 MiB Core
         ---------------------------------------------------------

  ==> Geometry <==

    Molecular point group: c1
    Full point group: C1

    Geometry (in Bohr), charge = 0, multiplicity = 1:

       Center              X                  Y                   Z               Mass       
    ------------   -----------------  -----------------  -----------------  -----------------
         O           -5.531022370000     2.939402900000     1.977626240000    15.994914619570
         O           -2.407088860000     0.908177340000     0.049059090000    15.994914619570
         H           -0.503048870000     1.375792050000     4.638809080000     1.007825032230
         H            0.000000000000     4.251042850000     3.090722380000     1.007825032230
         H           -2.389482150000     4.019167790000     5.401950410000     1.007825032230
         H           -3.747714110000     0.471479300000    -1.215575120000     1.007825032230
         C           -1.418597820000     2.985005000000     3.844051900000    12.000000000000
         C           -3.322637810000     2.286288140000     1.912214130000    12.000000000000
         O          -30.683466070000   -20.248103570000   -19.826411740000    15.994914619570
         O          -27.559532560000   -22.279329140000   -21.754978900000    15.994914619570
         H          -25.655492580000   -21.811714430000   -17.165228900000     1.007825032230
         H          -25.152443700000   -18.936463620000   -18.713315600000     1.007825032230
         H          -27.541925850000   -19.168338690000   -16.402087570000     1.007825032230
         H          -28.900157810000   -22.716027180000   -23.019613100000     1.007825032230
         C          -26.571041530000   -20.202501480000   -17.959986080000    12.000000000000
         C          -28.475081520000   -20.901218340000   -19.891823850000    12.000000000000

  Running in c1 symmetry.

  Rotational constants: A =      0.04086  B =      0.00061  C =      0.00060 [cm^-1]
  Rotational constants: A =   1224.88387  B =     18.29315  C =     18.04236 [MHz]
  Nuclear repulsion =  268.790268165156704

  Charge       = 0
  Multiplicity = 1
  Electrons    = 64
  Nalpha       = 32
  Nbeta        = 32

  ==> Algorithm <==

  SCF Algorithm Type is DF.
  DIIS enabled.
  MOM disabled.
  Fractional occupation disabled.
  Guess Type is SAD.
  Energy threshold   = 1.00e-10
  Density threshold  = 1.00e-10
  Integral threshold = 1.00e-12

  ==> Primary Basis <==

  Basis Set: AUG-CC-PVDZ
    Blend: AUG-CC-PVDZ
    Number of shells: 112
    Number of basis functions: 256
    Number of Cartesian functions: 272
    Spherical Harmonics?: true
    Max angular momentum: 2

   => Loading Basis Set <=

    Name: (AUG-CC-PVDZ AUX)
    Role: JKFIT
    Keyword: DF_BASIS_SCF
    atoms 1-2, 9-10  entry O          line   270 file /theoryfs2/ds/csargent/miniconda3/envs/cle/share/psi4/basis/aug-cc-pvdz-jkfit.gbs 
    atoms 3-6, 11-14 entry H          line    70 file /theoryfs2/ds/csargent/miniconda3/envs/cle/share/psi4/basis/aug-cc-pvdz-jkfit.gbs 
    atoms 7-8, 15-16 entry C          line   154 file /theoryfs2/ds/csargent/miniconda3/envs/cle/share/psi4/basis/aug-cc-pvdz-jkfit.gbs 

  ==> Integral Setup <==

  ==> DiskDFJK: Density-Fitted J/K Matrices <==

    J tasked:                  Yes
    K tasked:                  Yes
    wK tasked:                  No
    OpenMP threads:              6
    Integrals threads:           6
    Memory [MiB]:             5006
    Algorithm:                Core
    Integral Cache:           SAVE
    Schwarz Cutoff:          1E-12
    Fitting Condition:       1E-10

   => Auxiliary Basis Set <=

  Basis Set: (AUG-CC-PVDZ AUX)
    Blend: AUG-CC-PVDZ-JKFIT
    Number of shells: 320
    Number of basis functions: 944
    Number of Cartesian functions: 1088
    Spherical Harmonics?: true
    Max angular momentum: 3

  Minimum eigenvalue in the overlap matrix is 1.0277542223E-04.
  Reciprocal condition number of the overlap matrix is 9.6539125961E-06.
    Using symmetric orthogonalization.

  ==> Pre-Iterations <==

  SCF Guess: Superposition of Atomic Densities via on-the-fly atomic UHF (no occupation information).

   -------------------------
    Irrep   Nso     Nmo    
   -------------------------
     A        256     256 
   -------------------------
    Total     256     256
   -------------------------

  ==> Iterations <==

                           Total Energy        Delta E     RMS |[F,P]|

   @DF-RHF iter SAD:  -453.97985885508592   -4.53980e+02   0.00000e+00 
   @DF-RHF iter   1:  -455.36179879203985   -1.38194e+00   3.22744e-03 DIIS
   @DF-RHF iter   2:  -455.60180658761203   -2.40008e-01   1.87365e-03 DIIS
   @DF-RHF iter   3:  -455.68262940183905   -8.08228e-02   3.30390e-04 DIIS
   @DF-RHF iter   4:  -455.68710319801750   -4.47380e-03   1.46170e-04 DIIS
   @DF-RHF iter   5:  -455.68806531354016   -9.62116e-04   3.42507e-05 DIIS
   @DF-RHF iter   6:  -455.68813967172650   -7.43582e-05   1.66600e-05 DIIS
   @DF-RHF iter   7:  -455.68815925304818   -1.95813e-05   5.43488e-06 DIIS
   @DF-RHF iter   8:  -455.68816241621278   -3.16316e-06   1.43663e-06 DIIS
   @DF-RHF iter   9:  -455.68816264955313   -2.33340e-07   3.01269e-07 DIIS
   @DF-RHF iter  10:  -455.68816265719971   -7.64658e-09   7.94602e-08 DIIS
   @DF-RHF iter  11:  -455.68816265760734   -4.07624e-10   2.54855e-08 DIIS
   @DF-RHF iter  12:  -455.68816265765111   -4.37694e-11   6.03832e-09 DIIS
   @DF-RHF iter  13:  -455.68816265765400   -2.89901e-12   1.29451e-09 DIIS
   @DF-RHF iter  14:  -455.68816265765400    0.00000e+00   5.14272e-10 DIIS
   @DF-RHF iter  15:  -455.68816265765486   -8.52651e-13   2.04204e-10 DIIS
   @DF-RHF iter  16:  -455.68816265765463    2.27374e-13   5.77050e-11 DIIS
  Energy and wave function converged.


  ==> Post-Iterations <==

    Orbital Energies [Eh]
    ---------------------

    Doubly Occupied:                                                      

       1A    -20.629757     2A    -20.629383     3A    -20.553061  
       4A    -20.552693     5A    -11.396365     6A    -11.395999  
       7A    -11.251215     8A    -11.250870     9A     -1.476126  
      10A     -1.475754    11A     -1.357749    12A     -1.357379  
      13A     -1.033244    14A     -1.032893    15A     -0.838200  
      16A     -0.837833    17A     -0.703328    18A     -0.702959  
      19A     -0.688722    20A     -0.688362    21A     -0.658010  
      22A     -0.657648    23A     -0.576798    24A     -0.576435  
      25A     -0.569949    26A     -0.569596    27A     -0.561642  
      28A     -0.561291    29A     -0.475605    30A     -0.475234  
      31A     -0.452689    32A     -0.452322  

    Virtual:                                                              

      33A      0.031929    34A      0.032287    35A      0.045319  
      36A      0.045716    37A      0.054849    38A      0.055152  
      39A      0.064459    40A      0.064821    41A      0.098520  
      42A      0.098880    43A      0.117057    44A      0.117418  
      45A      0.117598    46A      0.117957    47A      0.140275  
      48A      0.140650    49A      0.151720    50A      0.152051  
      51A      0.156131    52A      0.156478    53A      0.164340  
      54A      0.164694    55A      0.171068    56A      0.171429  
      57A      0.196049    58A      0.196405    59A      0.208934  
      60A      0.209320    61A      0.233107    62A      0.233464  
      63A      0.234704    64A      0.235073    65A      0.270612  
      66A      0.270967    67A      0.290044    68A      0.290415  
      69A      0.295551    70A      0.295898    71A      0.319549  
      72A      0.319928    73A      0.322527    74A      0.322897  
      75A      0.347028    76A      0.347380    77A      0.370399  
      78A      0.370767    79A      0.378619    80A      0.378965  
      81A      0.393867    82A      0.394227    83A      0.401178  
      84A      0.401535    85A      0.426436    86A      0.426780  
      87A      0.437962    88A      0.438325    89A      0.441764  
      90A      0.442103    91A      0.475279    92A      0.475654  
      93A      0.492108    94A      0.492456    95A      0.524522  
      96A      0.524868    97A      0.537025    98A      0.537385  
      99A      0.553234   100A      0.553586   101A      0.569501  
     102A      0.569858   103A      0.583551   104A      0.583900  
     105A      0.601823   106A      0.602196   107A      0.617972  
     108A      0.618337   109A      0.640053   110A      0.640409  
     111A      0.649053   112A      0.649406   113A      0.666451  
     114A      0.666801   115A      0.683959   116A      0.684323  
     117A      0.696944   118A      0.697297   119A      0.703332  
     120A      0.703677   121A      0.733037   122A      0.733390  
     123A      0.742501   124A      0.742854   125A      0.798223  
     126A      0.798570   127A      0.853321   128A      0.853685  
     129A      0.876571   130A      0.876941   131A      0.912145  
     132A      0.912511   133A      0.949439   134A      0.949798  
     135A      0.954114   136A      0.954479   137A      0.982883  
     138A      0.983247   139A      1.041283   140A      1.041646  
     141A      1.088580   142A      1.088928   143A      1.101598  
     144A      1.101943   145A      1.118120   146A      1.118478  
     147A      1.157248   148A      1.157620   149A      1.171875  
     150A      1.172239   151A      1.176103   152A      1.176462  
     153A      1.235763   154A      1.236124   155A      1.271926  
     156A      1.272295   157A      1.318972   158A      1.319343  
     159A      1.357926   160A      1.358292   161A      1.390190  
     162A      1.390555   163A      1.412206   164A      1.412559  
     165A      1.462530   166A      1.462901   167A      1.467703  
     168A      1.468077   169A      1.545770   170A      1.546123  
     171A      1.634789   172A      1.635151   173A      1.649653  
     174A      1.650018   175A      1.714844   176A      1.715205  
     177A      1.755549   178A      1.755906   179A      1.772643  
     180A      1.772991   181A      1.847786   182A      1.848151  
     183A      1.865254   184A      1.865607   185A      1.883574  
     186A      1.883916   187A      1.966188   188A      1.966552  
     189A      1.979191   190A      1.979561   191A      2.026049  
     192A      2.026405   193A      2.037381   194A      2.037746  
     195A      2.122588   196A      2.122953   197A      2.171792  
     198A      2.172149   199A      2.192885   200A      2.193242  
     201A      2.244529   202A      2.244881   203A      2.253388  
     204A      2.253747   205A      2.272102   206A      2.272463  
     207A      2.311987   208A      2.312350   209A      2.379357  
     210A      2.379707   211A      2.430064   212A      2.430431  
     213A      2.438414   214A      2.438767   215A      2.536054  
     216A      2.536408   217A      2.623330   218A      2.623691  
     219A      2.652069   220A      2.652417   221A      2.783435  
     222A      2.783792   223A      2.833394   224A      2.833751  
     225A      2.885878   226A      2.886226   227A      2.974030  
     228A      2.974390   229A      3.001350   230A      3.001703  
     231A      3.016061   232A      3.016420   233A      3.178672  
     234A      3.179036   235A      3.345865   236A      3.346232  
     237A      3.666427   238A      3.666799   239A      3.690145  
     240A      3.690518   241A      3.736170   242A      3.736542  
     243A      3.759403   244A      3.759774   245A      3.790060  
     246A      3.790430   247A      3.804992   248A      3.805362  
     249A      3.900147   250A      3.900519   251A      4.050105  
     252A      4.050475   253A      4.142078   254A      4.142449  
     255A      4.309674   256A      4.310047  

    Final Occupation by Irrep:
              A 
    DOCC [    32 ]

  @DF-RHF Final Energy:  -455.68816265765463

   => Energetics <=

    Nuclear Repulsion Energy =            268.7902681651567036
    One-Electron Energy =               -1156.0786456747894135
    Two-Electron Energy =                 431.6002148519780803
    Total Energy =                       -455.6881626576546296

Computation Completed


Properties will be evaluated at   0.000000,   0.000000,   0.000000 [a0]

Properties computed using the SCF density matrix

  Nuclear Dipole Moment: [e a0]
     X: -1002.0633      Y:  -596.9484      Z:  -572.3952

  Electronic Dipole Moment: [e a0]
     X:  1003.7191      Y:   596.3833      Z:   572.2294

  Dipole Moment: [e a0]
     X:     1.6558      Y:    -0.5651      Z:    -0.1659     Total:     1.7574

  Dipole Moment: [D]
     X:     4.2087      Y:    -1.4363      Z:    -0.4216     Total:     4.4669


*** tstop() called on ds1 at Wed Sep  1 13:26:51 2021
Module time:
	user time   =      14.29 seconds =       0.24 minutes
	system time =       0.36 seconds =       0.01 minutes
	total time  =          3 seconds =       0.05 minutes
Total time:
	user time   =      14.29 seconds =       0.24 minutes
	system time =       0.36 seconds =       0.01 minutes
	total time  =          3 seconds =       0.05 minutes

  //>>>>>>>>>>>>>>>>>>>>>>>>>>>>>>>>>>>//
  //            Monomer A HF           //
  //<<<<<<<<<<<<<<<<<<<<<<<<<<<<<<<<<<<//


*** tstart() called on ds1
*** at Wed Sep  1 13:26:51 2021

   => Loading Basis Set <=

    Name: AUG-CC-PVDZ
    Role: ORBITAL
    Keyword: BASIS
    atoms 1-2, 9-10  entry O          line   254 file /theoryfs2/ds/csargent/miniconda3/envs/cle/share/psi4/basis/aug-cc-pvdz.gbs 
    atoms 3-6, 11-14 entry H          line    40 file /theoryfs2/ds/csargent/miniconda3/envs/cle/share/psi4/basis/aug-cc-pvdz.gbs 
    atoms 7-8, 15-16 entry C          line   182 file /theoryfs2/ds/csargent/miniconda3/envs/cle/share/psi4/basis/aug-cc-pvdz.gbs 


         ---------------------------------------------------------
                                   SCF
               by Justin Turney, Rob Parrish, Andy Simmonett
                          and Daniel G. A. Smith
                              RHF Reference
                        6 Threads,   6675 MiB Core
         ---------------------------------------------------------

  ==> Geometry <==

    Molecular point group: c1
    Full point group: C1

    Geometry (in Bohr), charge = 0, multiplicity = 1:

       Center              X                  Y                   Z               Mass       
    ------------   -----------------  -----------------  -----------------  -----------------
         O           -5.531022370000     2.939402900000     1.977626240000    15.994914619570
         O           -2.407088860000     0.908177340000     0.049059090000    15.994914619570
         H           -0.503048870000     1.375792050000     4.638809080000     1.007825032230
         H            0.000000000000     4.251042850000     3.090722380000     1.007825032230
         H           -2.389482150000     4.019167790000     5.401950410000     1.007825032230
         H           -3.747714110000     0.471479300000    -1.215575120000     1.007825032230
         C           -1.418597820000     2.985005000000     3.844051900000    12.000000000000
         C           -3.322637810000     2.286288140000     1.912214130000    12.000000000000
      Gh(O)         -30.683466070000   -20.248103570000   -19.826411740000    15.994914619570
      Gh(O)         -27.559532560000   -22.279329140000   -21.754978900000    15.994914619570
      Gh(H)         -25.655492580000   -21.811714430000   -17.165228900000     1.007825032230
      Gh(H)         -25.152443700000   -18.936463620000   -18.713315600000     1.007825032230
      Gh(H)         -27.541925850000   -19.168338690000   -16.402087570000     1.007825032230
      Gh(H)         -28.900157810000   -22.716027180000   -23.019613100000     1.007825032230
      Gh(C)         -26.571041530000   -20.202501480000   -17.959986080000    12.000000000000
      Gh(C)         -28.475081520000   -20.901218340000   -19.891823850000    12.000000000000

  Running in c1 symmetry.

  Rotational constants: A =      0.04086  B =      0.00061  C =      0.00060 [cm^-1]
  Rotational constants: A =   1224.88387  B =     18.29315  C =     18.04236 [MHz]
  Nuclear repulsion =  121.748430210971620

  Charge       = 0
  Multiplicity = 1
  Electrons    = 32
  Nalpha       = 16
  Nbeta        = 16

  ==> Algorithm <==

  SCF Algorithm Type is DF.
  DIIS enabled.
  MOM disabled.
  Fractional occupation disabled.
  Guess Type is SAD.
  Energy threshold   = 1.00e-10
  Density threshold  = 1.00e-10
  Integral threshold = 1.00e-12

  ==> Primary Basis <==

  Basis Set: AUG-CC-PVDZ
    Blend: AUG-CC-PVDZ
    Number of shells: 112
    Number of basis functions: 256
    Number of Cartesian functions: 272
    Spherical Harmonics?: true
    Max angular momentum: 2

   => Loading Basis Set <=

    Name: (AUG-CC-PVDZ AUX)
    Role: JKFIT
    Keyword: DF_BASIS_SCF
    atoms 1-2, 9-10  entry O          line   270 file /theoryfs2/ds/csargent/miniconda3/envs/cle/share/psi4/basis/aug-cc-pvdz-jkfit.gbs 
    atoms 3-6, 11-14 entry H          line    70 file /theoryfs2/ds/csargent/miniconda3/envs/cle/share/psi4/basis/aug-cc-pvdz-jkfit.gbs 
    atoms 7-8, 15-16 entry C          line   154 file /theoryfs2/ds/csargent/miniconda3/envs/cle/share/psi4/basis/aug-cc-pvdz-jkfit.gbs 

  ==> Integral Setup <==

  ==> DiskDFJK: Density-Fitted J/K Matrices <==

    J tasked:                  Yes
    K tasked:                  Yes
    wK tasked:                  No
    OpenMP threads:              6
    Integrals threads:           6
    Memory [MiB]:             5006
    Algorithm:                Core
    Integral Cache:           LOAD
    Schwarz Cutoff:          1E-12
    Fitting Condition:       1E-10

   => Auxiliary Basis Set <=

  Basis Set: (AUG-CC-PVDZ AUX)
    Blend: AUG-CC-PVDZ-JKFIT
    Number of shells: 320
    Number of basis functions: 944
    Number of Cartesian functions: 1088
    Spherical Harmonics?: true
    Max angular momentum: 3

  Minimum eigenvalue in the overlap matrix is 1.0277542223E-04.
  Reciprocal condition number of the overlap matrix is 9.6539125961E-06.
    Using symmetric orthogonalization.

  ==> Pre-Iterations <==

  SCF Guess: Superposition of Atomic Densities via on-the-fly atomic UHF (no occupation information).

   -------------------------
    Irrep   Nso     Nmo    
   -------------------------
     A        256     256 
   -------------------------
    Total     256     256
   -------------------------

  ==> Iterations <==

                           Total Energy        Delta E     RMS |[F,P]|

   @DF-RHF iter SAD:  -226.98992942901518   -2.26990e+02   0.00000e+00 
   @DF-RHF iter   1:  -227.68091168187701   -6.90982e-01   2.28211e-03 DIIS
   @DF-RHF iter   2:  -227.80091445484470   -1.20003e-01   1.32478e-03 DIIS
   @DF-RHF iter   3:  -227.84131987407952   -4.04054e-02   2.33581e-04 DIIS
   @DF-RHF iter   4:  -227.84355633762874   -2.23646e-03   1.03339e-04 DIIS
   @DF-RHF iter   5:  -227.84403723863349   -4.80901e-04   2.42136e-05 DIIS
   @DF-RHF iter   6:  -227.84407440663134   -3.71680e-05   1.17797e-05 DIIS
   @DF-RHF iter   7:  -227.84408419475719   -9.78813e-06   3.84272e-06 DIIS
   @DF-RHF iter   8:  -227.84408577634406   -1.58159e-06   1.01577e-06 DIIS
   @DF-RHF iter   9:  -227.84408589299431   -1.16650e-07   2.12953e-07 DIIS
   @DF-RHF iter  10:  -227.84408589681473   -3.82042e-09   5.61608e-08 DIIS
   @DF-RHF iter  11:  -227.84408589701843   -2.03698e-10   1.80147e-08 DIIS
   @DF-RHF iter  12:  -227.84408589704043   -2.19984e-11   4.26466e-09 DIIS
   @DF-RHF iter  13:  -227.84408589704211   -1.67688e-12   8.93569e-10 DIIS
   @DF-RHF iter  14:  -227.84408589704191    1.98952e-13   2.86711e-10 DIIS
   @DF-RHF iter  15:  -227.84408589704205   -1.42109e-13   1.08058e-10 DIIS
   @DF-RHF iter  16:  -227.84408589704219   -1.42109e-13   2.86096e-11 DIIS
  Energy and wave function converged.


  ==> Post-Iterations <==

    Orbital Energies [Eh]
    ---------------------

    Doubly Occupied:                                                      

       1A    -20.629476     2A    -20.552804     3A    -11.396108  
       4A    -11.250979     5A     -1.475853     6A     -1.357486  
       7A     -1.032999     8A     -0.837930     9A     -0.703065  
      10A     -0.688465    11A     -0.657749    12A     -0.576538  
      13A     -0.569697    14A     -0.561403    15A     -0.475343  
      16A     -0.452434  

    Virtual:                                                              

      17A      0.024865    18A      0.032214    19A      0.045627  
      20A      0.046953    21A      0.055084    22A      0.055614  
      23A      0.056633    24A      0.064645    25A      0.085536  
      26A      0.098769    27A      0.104673    28A      0.112291  
      29A      0.117323    30A      0.117473    31A      0.117857  
      32A      0.140515    33A      0.140545    34A      0.141467  
      35A      0.146968    36A      0.151976    37A      0.156356  
      38A      0.164577    39A      0.171320    40A      0.176471  
      41A      0.196303    42A      0.205716    43A      0.209237  
      44A      0.214698    45A      0.226387    46A      0.233376  
      47A      0.234963    48A      0.244175    49A      0.260385  
      50A      0.264908    51A      0.270849    52A      0.276807  
      53A      0.285550    54A      0.290295    55A      0.295802  
      56A      0.319834    57A      0.322781    58A      0.332391  
      59A      0.336334    60A      0.347275    61A      0.369580  
      62A      0.370652    63A      0.378870    64A      0.394119  
      65A      0.399406    66A      0.401429    67A      0.409883  
      68A      0.426690    69A      0.431259    70A      0.438016  
      71A      0.438218    72A      0.442006    73A      0.460548  
      74A      0.475555    75A      0.490342    76A      0.492357  
      77A      0.497402    78A      0.516645    79A      0.524763  
      80A      0.537262    81A      0.541865    82A      0.543696  
      83A      0.553487    84A      0.559747    85A      0.569740  
      86A      0.583791    87A      0.586909    88A      0.602101  
      89A      0.616433    90A      0.618231    91A      0.636367  
      92A      0.637185    93A      0.640311    94A      0.649301  
      95A      0.666705    96A      0.675245    97A      0.684210  
      98A      0.690069    99A      0.697190   100A      0.700937  
     101A      0.703571   102A      0.728230   103A      0.733289  
     104A      0.742748   105A      0.753770   106A      0.760439  
     107A      0.787260   108A      0.798460   109A      0.815887  
     110A      0.820225   111A      0.848344   112A      0.853581  
     113A      0.876833   114A      0.888324   115A      0.896515  
     116A      0.912403   117A      0.947737   118A      0.949697  
     119A      0.954375   120A      0.958232   121A      0.976026  
     122A      0.983144   123A      1.038086   124A      1.041547  
     125A      1.045313   126A      1.088819   127A      1.101839  
     128A      1.106531   129A      1.118367   130A      1.157520  
     131A      1.162685   132A      1.172141   133A      1.176359  
     134A      1.190990   135A      1.236033   136A      1.260765  
     137A      1.270359   138A      1.272187   139A      1.319230  
     140A      1.329685   141A      1.358181   142A      1.384217  
     143A      1.390440   144A      1.396363   145A      1.412451  
     146A      1.434800   147A      1.458459   148A      1.462795  
     149A      1.467760   150A      1.467976   151A      1.469634  
     152A      1.537658   153A      1.546014   154A      1.569414  
     155A      1.635048   156A      1.649915   157A      1.683819  
     158A      1.715101   159A      1.717599   160A      1.755800  
     161A      1.772884   162A      1.800105   163A      1.848039  
     164A      1.865503   165A      1.883007   166A      1.883811  
     167A      1.937158   168A      1.966454   169A      1.979453  
     170A      2.026298   171A      2.037642   172A      2.070916  
     173A      2.122848   174A      2.172049   175A      2.193137  
     176A      2.244771   177A      2.251054   178A      2.253643  
     179A      2.265085   180A      2.272354   181A      2.274081  
     182A      2.303129   183A      2.312246   184A      2.336751  
     185A      2.339260   186A      2.362271   187A      2.376688  
     188A      2.379604   189A      2.430330   190A      2.438663  
     191A      2.467309   192A      2.505984   193A      2.536303  
     194A      2.586145   195A      2.623585   196A      2.652307  
     197A      2.664844   198A      2.698479   199A      2.754516  
     200A      2.783681   201A      2.786374   202A      2.824390  
     203A      2.833647   204A      2.886121   205A      2.916159  
     206A      2.974291   207A      3.001602   208A      3.016316  
     209A      3.042900   210A      3.178935   211A      3.182631  
     212A      3.278792   213A      3.310905   214A      3.346124  
     215A      3.357089   216A      3.431720   217A      3.486926  
     218A      3.663005   219A      3.666705   220A      3.690423  
     221A      3.736441   222A      3.740306   223A      3.759662  
     224A      3.790324   225A      3.805251   226A      3.900417  
     227A      4.026364   228A      4.050368   229A      4.142340  
     230A      4.153903   231A      4.309953   232A      4.505222  
     233A      4.617146   234A      4.725184   235A      4.926193  
     236A      4.970033   237A      4.978265   238A      5.001964  
     239A      5.017129   240A      5.033996   241A      5.052750  
     242A      5.222285   243A      5.244469   244A      5.615473  
     245A      5.661490   246A      5.791606   247A      5.869341  
     248A      6.053095   249A      6.229165   250A      6.521053  
     251A      6.790553   252A      7.093261   253A     18.346532  
     254A     18.941035   255A     33.525856   256A     33.563847  

    Final Occupation by Irrep:
              A 
    DOCC [    16 ]

  @DF-RHF Final Energy:  -227.84408589704219

   => Energetics <=

    Nuclear Repulsion Energy =            121.7484302109716197
    One-Electron Energy =                -552.7483714462533726
    Two-Electron Energy =                 203.1558553382395758
    Total Energy =                       -227.8440858970421914

Computation Completed


Properties will be evaluated at   0.000000,   0.000000,   0.000000 [a0]

Properties computed using the SCF density matrix

  Nuclear Dipole Moment: [e a0]
     X:   -98.5925      Y:    72.5259      Z:    62.6670

  Electronic Dipole Moment: [e a0]
     X:    99.4206      Y:   -72.8088      Z:   -62.7502

  Dipole Moment: [e a0]
     X:     0.8281      Y:    -0.2829      Z:    -0.0832     Total:     0.8790

  Dipole Moment: [D]
     X:     2.1048      Y:    -0.7191      Z:    -0.2116     Total:     2.2342


*** tstop() called on ds1 at Wed Sep  1 13:26:53 2021
Module time:
	user time   =      10.29 seconds =       0.17 minutes
	system time =       0.20 seconds =       0.00 minutes
	total time  =          2 seconds =       0.03 minutes
Total time:
	user time   =      24.77 seconds =       0.41 minutes
	system time =       0.57 seconds =       0.01 minutes
	total time  =          5 seconds =       0.08 minutes

  //>>>>>>>>>>>>>>>>>>>>>>>>>>>>>>>>>>>//
  //            Monomer B HF           //
  //<<<<<<<<<<<<<<<<<<<<<<<<<<<<<<<<<<<//


*** tstart() called on ds1
*** at Wed Sep  1 13:26:53 2021

   => Loading Basis Set <=

    Name: AUG-CC-PVDZ
    Role: ORBITAL
    Keyword: BASIS
    atoms 1-2, 9-10  entry O          line   254 file /theoryfs2/ds/csargent/miniconda3/envs/cle/share/psi4/basis/aug-cc-pvdz.gbs 
    atoms 3-6, 11-14 entry H          line    40 file /theoryfs2/ds/csargent/miniconda3/envs/cle/share/psi4/basis/aug-cc-pvdz.gbs 
    atoms 7-8, 15-16 entry C          line   182 file /theoryfs2/ds/csargent/miniconda3/envs/cle/share/psi4/basis/aug-cc-pvdz.gbs 


         ---------------------------------------------------------
                                   SCF
               by Justin Turney, Rob Parrish, Andy Simmonett
                          and Daniel G. A. Smith
                              RHF Reference
                        6 Threads,   6675 MiB Core
         ---------------------------------------------------------

  ==> Geometry <==

    Molecular point group: c1
    Full point group: C1

    Geometry (in Bohr), charge = 0, multiplicity = 1:

       Center              X                  Y                   Z               Mass       
    ------------   -----------------  -----------------  -----------------  -----------------
      Gh(O)          -5.531022370000     2.939402900000     1.977626240000    15.994914619570
      Gh(O)          -2.407088860000     0.908177340000     0.049059090000    15.994914619570
      Gh(H)          -0.503048870000     1.375792050000     4.638809080000     1.007825032230
      Gh(H)           0.000000000000     4.251042850000     3.090722380000     1.007825032230
      Gh(H)          -2.389482150000     4.019167790000     5.401950410000     1.007825032230
      Gh(H)          -3.747714110000     0.471479300000    -1.215575120000     1.007825032230
      Gh(C)          -1.418597820000     2.985005000000     3.844051900000    12.000000000000
      Gh(C)          -3.322637810000     2.286288140000     1.912214130000    12.000000000000
         O          -30.683466070000   -20.248103570000   -19.826411740000    15.994914619570
         O          -27.559532560000   -22.279329140000   -21.754978900000    15.994914619570
         H          -25.655492580000   -21.811714430000   -17.165228900000     1.007825032230
         H          -25.152443700000   -18.936463620000   -18.713315600000     1.007825032230
         H          -27.541925850000   -19.168338690000   -16.402087570000     1.007825032230
         H          -28.900157810000   -22.716027180000   -23.019613100000     1.007825032230
         C          -26.571041530000   -20.202501480000   -17.959986080000    12.000000000000
         C          -28.475081520000   -20.901218340000   -19.891823850000    12.000000000000

  Running in c1 symmetry.

  Rotational constants: A =      0.04086  B =      0.00061  C =      0.00060 [cm^-1]
  Rotational constants: A =   1224.88387  B =     18.29315  C =     18.04236 [MHz]
  Nuclear repulsion =  121.748430147485266

  Charge       = 0
  Multiplicity = 1
  Electrons    = 32
  Nalpha       = 16
  Nbeta        = 16

  ==> Algorithm <==

  SCF Algorithm Type is DF.
  DIIS enabled.
  MOM disabled.
  Fractional occupation disabled.
  Guess Type is SAD.
  Energy threshold   = 1.00e-10
  Density threshold  = 1.00e-10
  Integral threshold = 1.00e-12

  ==> Primary Basis <==

  Basis Set: AUG-CC-PVDZ
    Blend: AUG-CC-PVDZ
    Number of shells: 112
    Number of basis functions: 256
    Number of Cartesian functions: 272
    Spherical Harmonics?: true
    Max angular momentum: 2

   => Loading Basis Set <=

    Name: (AUG-CC-PVDZ AUX)
    Role: JKFIT
    Keyword: DF_BASIS_SCF
    atoms 1-2, 9-10  entry O          line   270 file /theoryfs2/ds/csargent/miniconda3/envs/cle/share/psi4/basis/aug-cc-pvdz-jkfit.gbs 
    atoms 3-6, 11-14 entry H          line    70 file /theoryfs2/ds/csargent/miniconda3/envs/cle/share/psi4/basis/aug-cc-pvdz-jkfit.gbs 
    atoms 7-8, 15-16 entry C          line   154 file /theoryfs2/ds/csargent/miniconda3/envs/cle/share/psi4/basis/aug-cc-pvdz-jkfit.gbs 

  ==> Integral Setup <==

  ==> DiskDFJK: Density-Fitted J/K Matrices <==

    J tasked:                  Yes
    K tasked:                  Yes
    wK tasked:                  No
    OpenMP threads:              6
    Integrals threads:           6
    Memory [MiB]:             5006
    Algorithm:                Core
    Integral Cache:           LOAD
    Schwarz Cutoff:          1E-12
    Fitting Condition:       1E-10

   => Auxiliary Basis Set <=

  Basis Set: (AUG-CC-PVDZ AUX)
    Blend: AUG-CC-PVDZ-JKFIT
    Number of shells: 320
    Number of basis functions: 944
    Number of Cartesian functions: 1088
    Spherical Harmonics?: true
    Max angular momentum: 3

  Minimum eigenvalue in the overlap matrix is 1.0277542223E-04.
  Reciprocal condition number of the overlap matrix is 9.6539125961E-06.
    Using symmetric orthogonalization.

  ==> Pre-Iterations <==

  SCF Guess: Superposition of Atomic Densities via on-the-fly atomic UHF (no occupation information).

   -------------------------
    Irrep   Nso     Nmo    
   -------------------------
     A        256     256 
   -------------------------
    Total     256     256
   -------------------------

  ==> Iterations <==

                           Total Energy        Delta E     RMS |[F,P]|

   @DF-RHF iter SAD:  -226.98992942526942   -2.26990e+02   0.00000e+00 
   @DF-RHF iter   1:  -227.68091168068429   -6.90982e-01   2.28211e-03 DIIS
   @DF-RHF iter   2:  -227.80091445382683   -1.20003e-01   1.32478e-03 DIIS
   @DF-RHF iter   3:  -227.84131987298758   -4.04054e-02   2.33581e-04 DIIS
   @DF-RHF iter   4:  -227.84355633651623   -2.23646e-03   1.03339e-04 DIIS
   @DF-RHF iter   5:  -227.84403723751777   -4.80901e-04   2.42136e-05 DIIS
   @DF-RHF iter   6:  -227.84407440551539   -3.71680e-05   1.17797e-05 DIIS
   @DF-RHF iter   7:  -227.84408419364121   -9.78813e-06   3.84272e-06 DIIS
   @DF-RHF iter   8:  -227.84408577522805   -1.58159e-06   1.01577e-06 DIIS
   @DF-RHF iter   9:  -227.84408589187825   -1.16650e-07   2.12953e-07 DIIS
   @DF-RHF iter  10:  -227.84408589569864   -3.82039e-09   5.61608e-08 DIIS
   @DF-RHF iter  11:  -227.84408589590211   -2.03471e-10   1.80147e-08 DIIS
   @DF-RHF iter  12:  -227.84408589592428   -2.21689e-11   4.26466e-09 DIIS
   @DF-RHF iter  13:  -227.84408589592607   -1.79057e-12   8.93569e-10 DIIS
   @DF-RHF iter  14:  -227.84408589592587    1.98952e-13   2.86711e-10 DIIS
   @DF-RHF iter  15:  -227.84408589592607   -1.98952e-13   1.08059e-10 DIIS
   @DF-RHF iter  16:  -227.84408589592584    2.27374e-13   2.86097e-11 DIIS
  Energy and wave function converged.


  ==> Post-Iterations <==

    Orbital Energies [Eh]
    ---------------------

    Doubly Occupied:                                                      

       1A    -20.629476     2A    -20.552804     3A    -11.396108  
       4A    -11.250979     5A     -1.475853     6A     -1.357486  
       7A     -1.032999     8A     -0.837930     9A     -0.703065  
      10A     -0.688465    11A     -0.657749    12A     -0.576538  
      13A     -0.569697    14A     -0.561403    15A     -0.475343  
      16A     -0.452434  

    Virtual:                                                              

      17A      0.024512    18A      0.032214    19A      0.045627  
      20A      0.046539    21A      0.055084    22A      0.055299  
      23A      0.056301    24A      0.064645    25A      0.085131  
      26A      0.098769    27A      0.104330    28A      0.111939  
      29A      0.117146    30A      0.117323    31A      0.117857  
      32A      0.140131    33A      0.140545    34A      0.141131  
      35A      0.146620    36A      0.151976    37A      0.156356  
      38A      0.164577    39A      0.171320    40A      0.176112  
      41A      0.196303    42A      0.205353    43A      0.209237  
      44A      0.214334    45A      0.226004    46A      0.233376  
      47A      0.234963    48A      0.243803    49A      0.260017  
      50A      0.264552    51A      0.270849    52A      0.276422  
      53A      0.285194    54A      0.290295    55A      0.295802  
      56A      0.319834    57A      0.322781    58A      0.332045  
      59A      0.335995    60A      0.347275    61A      0.369232  
      62A      0.370652    63A      0.378870    64A      0.394119  
      65A      0.399063    66A      0.401429    67A      0.409549  
      68A      0.426690    69A      0.430904    70A      0.437680  
      71A      0.438218    72A      0.442006    73A      0.460163  
      74A      0.475555    75A      0.489975    76A      0.492357  
      77A      0.497042    78A      0.516269    79A      0.524763  
      80A      0.537262    81A      0.541482    82A      0.543342  
      83A      0.553487    84A      0.559392    85A      0.569740  
      86A      0.583791    87A      0.586574    88A      0.602101  
      89A      0.616069    90A      0.618231    91A      0.636005  
      92A      0.636830    93A      0.640311    94A      0.649301  
      95A      0.666705    96A      0.674888    97A      0.684210  
      98A      0.689718    99A      0.697190   100A      0.700588  
     101A      0.703571   102A      0.727894   103A      0.733289  
     104A      0.742748   105A      0.753405   106A      0.760091  
     107A      0.786915   108A      0.798460   109A      0.815551  
     110A      0.819881   111A      0.848003   112A      0.853581  
     113A      0.876833   114A      0.887972   115A      0.896161  
     116A      0.912403   117A      0.947383   118A      0.949697  
     119A      0.954375   120A      0.957877   121A      0.975667  
     122A      0.983144   123A      1.037720   124A      1.041547  
     125A      1.044947   126A      1.088819   127A      1.101839  
     128A      1.106168   129A      1.118367   130A      1.157520  
     131A      1.162316   132A      1.172141   133A      1.176359  
     134A      1.190621   135A      1.236033   136A      1.260387  
     137A      1.269982   138A      1.272187   139A      1.319230  
     140A      1.329314   141A      1.358181   142A      1.383840  
     143A      1.390440   144A      1.395990   145A      1.412451  
     146A      1.434424   147A      1.458083   148A      1.462795  
     149A      1.467386   150A      1.467976   151A      1.469261  
     152A      1.537287   153A      1.546014   154A      1.569043  
     155A      1.635048   156A      1.649915   157A      1.683451  
     158A      1.715101   159A      1.717230   160A      1.755800  
     161A      1.772884   162A      1.799731   163A      1.848039  
     164A      1.865503   165A      1.882676   166A      1.883811  
     167A      1.936818   168A      1.966454   169A      1.979453  
     170A      2.026298   171A      2.037642   172A      2.070566  
     173A      2.122848   174A      2.172049   175A      2.193137  
     176A      2.244771   177A      2.250707   178A      2.253643  
     179A      2.264750   180A      2.272354   181A      2.273711  
     182A      2.302791   183A      2.312246   184A      2.336415  
     185A      2.338923   186A      2.361928   187A      2.376326  
     188A      2.379604   189A      2.430330   190A      2.438663  
     191A      2.466937   192A      2.505606   193A      2.536303  
     194A      2.585781   195A      2.623585   196A      2.652307  
     197A      2.664483   198A      2.698137   199A      2.754174  
     200A      2.783681   201A      2.786024   202A      2.824046  
     203A      2.833647   204A      2.886121   205A      2.915799  
     206A      2.974291   207A      3.001602   208A      3.016316  
     209A      3.042547   210A      3.178935   211A      3.182282  
     212A      3.278450   213A      3.310554   214A      3.346124  
     215A      3.356741   216A      3.431362   217A      3.486581  
     218A      3.662648   219A      3.666705   220A      3.690423  
     221A      3.736441   222A      3.739934   223A      3.759662  
     224A      3.790324   225A      3.805251   226A      3.900417  
     227A      4.025995   228A      4.050368   229A      4.142340  
     230A      4.153524   231A      4.309953   232A      4.504847  
     233A      4.616774   234A      4.724831   235A      4.925816  
     236A      4.969658   237A      4.977891   238A      5.001586  
     239A      5.016758   240A      5.033624   241A      5.052405  
     242A      5.221924   243A      5.244118   244A      5.615100  
     245A      5.661116   246A      5.791230   247A      5.868967  
     248A      6.052720   249A      6.228787   250A      6.520679  
     251A      6.790177   252A      7.092886   253A     18.346182  
     254A     18.940681   255A     33.525477   256A     33.563473  

    Final Occupation by Irrep:
              A 
    DOCC [    16 ]

  @DF-RHF Final Energy:  -227.84408589592584

   => Energetics <=

    Nuclear Repulsion Energy =            121.7484301474852657
    One-Electron Energy =                -552.7483713087343631
    Two-Electron Energy =                 203.1558552653232823
    Total Energy =                       -227.8440858959258435

Computation Completed


Properties will be evaluated at   0.000000,   0.000000,   0.000000 [a0]

Properties computed using the SCF density matrix

  Nuclear Dipole Moment: [e a0]
     X:  -903.4707      Y:  -669.4743      Z:  -635.0622

  Electronic Dipole Moment: [e a0]
     X:   904.2988      Y:   669.1914      Z:   634.9790

  Dipole Moment: [e a0]
     X:     0.8281      Y:    -0.2829      Z:    -0.0832     Total:     0.8790

  Dipole Moment: [D]
     X:     2.1048      Y:    -0.7191      Z:    -0.2116     Total:     2.2342


*** tstop() called on ds1 at Wed Sep  1 13:26:56 2021
Module time:
	user time   =      10.30 seconds =       0.17 minutes
	system time =       0.17 seconds =       0.00 minutes
	total time  =          3 seconds =       0.05 minutes
Total time:
	user time   =      35.25 seconds =       0.59 minutes
	system time =       0.74 seconds =       0.01 minutes
	total time  =          8 seconds =       0.13 minutes
  Constructing Basis Sets for SAPT...

   => Loading Basis Set <=

    Name: (AUG-CC-PVDZ AUX)
    Role: RIFIT
    Keyword: DF_BASIS_SAPT
    atoms 1-2, 9-10  entry O          line   204 file /theoryfs2/ds/csargent/miniconda3/envs/cle/share/psi4/basis/aug-cc-pvdz-ri.gbs 
    atoms 3-6, 11-14 entry H          line    30 file /theoryfs2/ds/csargent/miniconda3/envs/cle/share/psi4/basis/aug-cc-pvdz-ri.gbs 
    atoms 7-8, 15-16 entry C          line   112 file /theoryfs2/ds/csargent/miniconda3/envs/cle/share/psi4/basis/aug-cc-pvdz-ri.gbs 


  //>>>>>>>>>>>>>>>>>>>>>>>>>>>>>>>>>>>//
  //               SAPT0               //
  //<<<<<<<<<<<<<<<<<<<<<<<<<<<<<<<<<<<//


*** tstart() called on ds1
*** at Wed Sep  1 13:26:56 2021

        SAPT0  
    Ed Hohenstein
     6 June 2009

      Orbital Information
  --------------------------
    NSO        =       256
    NMO        =       256
    NRI        =       760
    NOCC A     =        16
    NOCC B     =        16
    FOCC A     =         4
    FOCC B     =         4
    NVIR A     =       240
    NVIR B     =       240

    Elst10,r            =     0.000009158038 [Eh]
    Exch10              =    -0.000000000000 [Eh]
    Exch10 (S^2)        =    -0.000000000000 [Eh]

    Iter     Energy [mEh]          dE [mEh]         Residual      Time [s]
       1      -0.00000434       0.000004340       0.015280060             0
       2      -0.00000469       0.000000355       0.007319115             0
       3      -0.00000505       0.000000360       0.002294700             0
       4      -0.00000511       0.000000057       0.000526144             1
       5      -0.00000510      -0.000000013       0.000256778             1
       6      -0.00000509      -0.000000005       0.000081788             1
       7      -0.00000510       0.000000001       0.000032601             1
       8      -0.00000510       0.000000000       0.000008278             1
       9      -0.00000510      -0.000000000       0.000002270             1
      10      -0.00000510      -0.000000000       0.000000516             1

    CHF Iterations converged


    Iter     Energy [mEh]          dE [mEh]         Residual      Time [s]
       1      -0.00000383       0.000003828       0.018619605             0
       2      -0.00000384       0.000000013       0.006584466             0
       3      -0.00000425       0.000000410       0.002015766             0
       4      -0.00000430       0.000000051       0.000636367             0
       5      -0.00000429      -0.000000012       0.000361995             0
       6      -0.00000428      -0.000000007       0.000087926             0
       7      -0.00000428       0.000000002       0.000022852             1
       8      -0.00000428       0.000000000       0.000005110             1
       9      -0.00000428      -0.000000000       0.000001323             1
      10      -0.00000428      -0.000000000       0.000000323             1

    CHF Iterations converged

    Ind20,r (A<-B)      =    -0.000000005096 [Eh]
    Ind20,r (B<-A)      =    -0.000000004285 [Eh]
    Ind20,r             =    -0.000000009381 [Eh]
    Exch-Ind20,r (A<-B) =     0.000000000000 [Eh]
    Exch-Ind20,r (B<-A) =     0.000000000000 [Eh]
    Exch-Ind20,r        =     0.000000000000 [Eh]
    Disp20              =    -0.000000138224 [Eh]
    Disp20 (SS)         =    -0.000000069112 [Eh]
    Disp20 (OS)         =    -0.000000069112 [Eh]
    Exch-Disp20         =     0.000000000000 [Eh]
    Exch-Disp20 (SS)    =     0.000000000000 [Eh]
    Exch-Disp20 (OS)    =     0.000000000000 [Eh]

    SAPT Results 
  --------------------------------------------------------------------------------------------------------
    Electrostatics                  0.00915804 [mEh]       0.00574676 [kcal/mol]       0.02404443 [kJ/mol]
      Elst10,r                      0.00915804 [mEh]       0.00574676 [kcal/mol]       0.02404443 [kJ/mol]

    Exchange                       -0.00000000 [mEh]      -0.00000000 [kcal/mol]      -0.00000000 [kJ/mol]
      Exch10                       -0.00000000 [mEh]      -0.00000000 [kcal/mol]      -0.00000000 [kJ/mol]
      Exch10(S^2)                  -0.00000000 [mEh]      -0.00000000 [kcal/mol]      -0.00000000 [kJ/mol]

    Induction                      -0.00002273 [mEh]      -0.00001426 [kcal/mol]      -0.00005966 [kJ/mol]
      Ind20,r                      -0.00000938 [mEh]      -0.00000589 [kcal/mol]      -0.00002463 [kJ/mol]
      Exch-Ind20,r                  0.00000000 [mEh]       0.00000000 [kcal/mol]       0.00000000 [kJ/mol]
      delta HF,r (2)               -0.00001334 [mEh]      -0.00000837 [kcal/mol]      -0.00003504 [kJ/mol]

    Dispersion                     -0.00013822 [mEh]      -0.00008674 [kcal/mol]      -0.00036291 [kJ/mol]
      Disp20                       -0.00013822 [mEh]      -0.00008674 [kcal/mol]      -0.00036291 [kJ/mol]
      Exch-Disp20                   0.00000000 [mEh]       0.00000000 [kcal/mol]       0.00000000 [kJ/mol]
      Disp20 (SS)                  -0.00006911 [mEh]      -0.00004337 [kcal/mol]      -0.00018145 [kJ/mol]
      Disp20 (OS)                  -0.00006911 [mEh]      -0.00004337 [kcal/mol]      -0.00018145 [kJ/mol]
      Exch-Disp20 (SS)              0.00000000 [mEh]       0.00000000 [kcal/mol]       0.00000000 [kJ/mol]
      Exch-Disp20 (OS)              0.00000000 [mEh]       0.00000000 [kcal/mol]       0.00000000 [kJ/mol]

  Total HF                          0.00913531 [mEh]       0.00573250 [kcal/mol]       0.02398476 [kJ/mol]
  Total SAPT0                       0.00899709 [mEh]       0.00564576 [kcal/mol]       0.02362185 [kJ/mol]

  Special recipe for scaled SAPT0 (see Manual):
    Electrostatics sSAPT0           0.00915804 [mEh]       0.00574676 [kcal/mol]       0.02404443 [kJ/mol]
    Exchange sSAPT0                -0.00000000 [mEh]      -0.00000000 [kcal/mol]      -0.00000000 [kJ/mol]
    Induction sSAPT0               -0.00002273 [mEh]      -0.00001426 [kcal/mol]      -0.00005966 [kJ/mol]
    Dispersion sSAPT0              -0.00013822 [mEh]      -0.00008674 [kcal/mol]      -0.00036291 [kJ/mol]
  Total sSAPT0                      0.00899709 [mEh]       0.00564576 [kcal/mol]       0.02362185 [kJ/mol]
  --------------------------------------------------------------------------------------------------------

*** tstop() called on ds1 at Wed Sep  1 13:27:01 2021
Module time:
	user time   =      26.37 seconds =       0.44 minutes
	system time =       2.34 seconds =       0.04 minutes
	total time  =          5 seconds =       0.08 minutes
Total time:
	user time   =      62.10 seconds =       1.03 minutes
	system time =       3.10 seconds =       0.05 minutes
	total time  =         13 seconds =       0.22 minutes


Warning! sapt0 does not have an associated derived wavefunction.The returned wavefunction is the dimer SCF wavefunction.


    Psi4 stopped on: Wednesday, 01 September 2021 01:27PM
    Psi4 wall time for execution: 0:00:13.49

*** Psi4 exiting successfully. Buy a developer a beer!
