
    -----------------------------------------------------------------------
          Psi4: An Open-Source Ab Initio Electronic Structure Package
                               Psi4 1.4rc3 

                         Git: Rev {HEAD} 080dba6 


    D. G. A. Smith, L. A. Burns, A. C. Simmonett, R. M. Parrish,
    M. C. Schieber, R. Galvelis, P. Kraus, H. Kruse, R. Di Remigio,
    A. Alenaizan, A. M. James, S. Lehtola, J. P. Misiewicz, M. Scheurer,
    R. A. Shaw, J. B. Schriber, Y. Xie, Z. L. Glick, D. A. Sirianni,
    J. S. O'Brien, J. M. Waldrop, A. Kumar, E. G. Hohenstein,
    B. P. Pritchard, B. R. Brooks, H. F. Schaefer III, A. Yu. Sokolov,
    K. Patkowski, A. E. DePrince III, U. Bozkaya, R. A. King,
    F. A. Evangelista, J. M. Turney, T. D. Crawford, C. D. Sherrill,
    J. Chem. Phys. 152(18) 184108 (2020). https://doi.org/10.1063/5.0006002

                            Additional Code Authors
    E. T. Seidl, C. L. Janssen, E. F. Valeev, M. L. Leininger,
    J. F. Gonthier, R. M. Richard, H. R. McAlexander, M. Saitow, X. Wang,
    P. Verma, and M. H. Lechner

             Previous Authors, Complete List of Code Contributors,
                       and Citations for Specific Modules
    https://github.com/psi4/psi4/blob/master/codemeta.json
    https://github.com/psi4/psi4/graphs/contributors
    http://psicode.org/psi4manual/master/introduction.html#citing-psifour

    -----------------------------------------------------------------------


    Psi4 started on: Wednesday, 01 September 2021 02:07PM

    Process ID: 20929
    Host:       ds1
    PSIDATADIR: /theoryfs2/ds/csargent/miniconda3/envs/cle/share/psi4
    Memory:     500.0 MiB
    Threads:    6
    
  ==> Input File <==

--------------------------------------------------------------------------
# PSI4 file produced by CrystaLattE

# Generated from:               acetic_acid.xyz
# Psithon input for N-mer:      2mer-0+477
# Number of atoms per monomer:  [8, 8]
# Number of replicas:           2
# COM priority:                 2.170792707008e-05
# Minimum COM separations:      18.970 
# Separation priority:          3.037665072067e-05
# Minimum monomer separations:  16.960 
# Cutoff priority:              9.478068652474e-07
# Nuclear repulsion energy:     271.94293067755365

memory 7 GB

molecule Dimer_0_477 {
  O           -5.53102237       2.93940290       1.97762624 
  O           -2.40708886       0.90817734       0.04905909 
  H           -0.50304887       1.37579205       4.63880908 
  H            0.00000000       4.25104285       3.09072238 
  H           -2.38948215       4.01916779       5.40195041 
  H           -3.74771411       0.47147930      -1.21557512 
  C           -1.41859782       2.98500500       3.84405190 
  C           -3.32263781       2.28628814       1.91221413 
--
  O          -30.53758190      -8.65435033      18.33065473 
  O          -33.66151541     -10.68557590      16.40208757 
  H          -35.56555540     -10.21796119      20.99183757 
  H          -36.06860427      -7.34271038      19.44375087 
  H          -33.67912212      -7.57458545      21.75497890 
  H          -32.32089016     -11.12227394      15.13745337 
  C          -34.65000644      -8.60874824      20.19708038 
  C          -32.74596646      -9.30746510      18.26524262 
units = au
no_com
no_reorient
}

set {
  e_convergence 10
  d_convergence 10
  scf_type df
  mp2_type df
  cc_type df
  freeze_core true
}

energy('sapt0/aug-cc-pvdz')

--------------------------------------------------------------------------

  Memory set to   6.519 GiB by Python driver.

Scratch directory: /scratch/csargent/psi4.17562.33784/

Scratch directory: /scratch/csargent/psi4.17562.33784/

  //>>>>>>>>>>>>>>>>>>>>>>>>>>>>>>>>>>>//
  //              Dimer HF             //
  //<<<<<<<<<<<<<<<<<<<<<<<<<<<<<<<<<<<//


*** tstart() called on ds1
*** at Wed Sep  1 14:07:38 2021

   => Loading Basis Set <=

    Name: AUG-CC-PVDZ
    Role: ORBITAL
    Keyword: BASIS
    atoms 1-2, 9-10  entry O          line   254 file /theoryfs2/ds/csargent/miniconda3/envs/cle/share/psi4/basis/aug-cc-pvdz.gbs 
    atoms 3-6, 11-14 entry H          line    40 file /theoryfs2/ds/csargent/miniconda3/envs/cle/share/psi4/basis/aug-cc-pvdz.gbs 
    atoms 7-8, 15-16 entry C          line   182 file /theoryfs2/ds/csargent/miniconda3/envs/cle/share/psi4/basis/aug-cc-pvdz.gbs 


         ---------------------------------------------------------
                                   SCF
               by Justin Turney, Rob Parrish, Andy Simmonett
                          and Daniel G. A. Smith
                              RHF Reference
                        6 Threads,   6675 MiB Core
         ---------------------------------------------------------

  ==> Geometry <==

    Molecular point group: c1
    Full point group: C1

    Geometry (in Bohr), charge = 0, multiplicity = 1:

       Center              X                  Y                   Z               Mass       
    ------------   -----------------  -----------------  -----------------  -----------------
         O           -5.531022370000     2.939402900000     1.977626240000    15.994914619570
         O           -2.407088860000     0.908177340000     0.049059090000    15.994914619570
         H           -0.503048870000     1.375792050000     4.638809080000     1.007825032230
         H            0.000000000000     4.251042850000     3.090722380000     1.007825032230
         H           -2.389482150000     4.019167790000     5.401950410000     1.007825032230
         H           -3.747714110000     0.471479300000    -1.215575120000     1.007825032230
         C           -1.418597820000     2.985005000000     3.844051900000    12.000000000000
         C           -3.322637810000     2.286288140000     1.912214130000    12.000000000000
         O          -30.537581900000    -8.654350330000    18.330654730000    15.994914619570
         O          -33.661515410000   -10.685575900000    16.402087570000    15.994914619570
         H          -35.565555400000   -10.217961190000    20.991837570000     1.007825032230
         H          -36.068604270000    -7.342710380000    19.443750870000     1.007825032230
         H          -33.679122120000    -7.574585450000    21.754978900000     1.007825032230
         H          -32.320890160000   -11.122273940000    15.137453370000     1.007825032230
         C          -34.650006440000    -8.608748240000    20.197080380000    12.000000000000
         C          -32.745966460000    -9.307465100000    18.265242620000    12.000000000000

  Running in c1 symmetry.

  Rotational constants: A =      0.06101  B =      0.00066  C =      0.00066 [cm^-1]
  Rotational constants: A =   1829.00873  B =     19.78604  C =     19.67503 [MHz]
  Nuclear repulsion =  271.942930670429860

  Charge       = 0
  Multiplicity = 1
  Electrons    = 64
  Nalpha       = 32
  Nbeta        = 32

  ==> Algorithm <==

  SCF Algorithm Type is DF.
  DIIS enabled.
  MOM disabled.
  Fractional occupation disabled.
  Guess Type is SAD.
  Energy threshold   = 1.00e-10
  Density threshold  = 1.00e-10
  Integral threshold = 1.00e-12

  ==> Primary Basis <==

  Basis Set: AUG-CC-PVDZ
    Blend: AUG-CC-PVDZ
    Number of shells: 112
    Number of basis functions: 256
    Number of Cartesian functions: 272
    Spherical Harmonics?: true
    Max angular momentum: 2

   => Loading Basis Set <=

    Name: (AUG-CC-PVDZ AUX)
    Role: JKFIT
    Keyword: DF_BASIS_SCF
    atoms 1-2, 9-10  entry O          line   270 file /theoryfs2/ds/csargent/miniconda3/envs/cle/share/psi4/basis/aug-cc-pvdz-jkfit.gbs 
    atoms 3-6, 11-14 entry H          line    70 file /theoryfs2/ds/csargent/miniconda3/envs/cle/share/psi4/basis/aug-cc-pvdz-jkfit.gbs 
    atoms 7-8, 15-16 entry C          line   154 file /theoryfs2/ds/csargent/miniconda3/envs/cle/share/psi4/basis/aug-cc-pvdz-jkfit.gbs 

  ==> Integral Setup <==

  ==> DiskDFJK: Density-Fitted J/K Matrices <==

    J tasked:                  Yes
    K tasked:                  Yes
    wK tasked:                  No
    OpenMP threads:              6
    Integrals threads:           6
    Memory [MiB]:             5006
    Algorithm:                Core
    Integral Cache:           SAVE
    Schwarz Cutoff:          1E-12
    Fitting Condition:       1E-10

   => Auxiliary Basis Set <=

  Basis Set: (AUG-CC-PVDZ AUX)
    Blend: AUG-CC-PVDZ-JKFIT
    Number of shells: 320
    Number of basis functions: 944
    Number of Cartesian functions: 1088
    Spherical Harmonics?: true
    Max angular momentum: 3

  Minimum eigenvalue in the overlap matrix is 1.0277546403E-04.
  Reciprocal condition number of the overlap matrix is 9.6539165240E-06.
    Using symmetric orthogonalization.

  ==> Pre-Iterations <==

  SCF Guess: Superposition of Atomic Densities via on-the-fly atomic UHF (no occupation information).

   -------------------------
    Irrep   Nso     Nmo    
   -------------------------
     A        256     256 
   -------------------------
    Total     256     256
   -------------------------

  ==> Iterations <==

                           Total Energy        Delta E     RMS |[F,P]|

   @DF-RHF iter SAD:  -453.97985885590458   -4.53980e+02   0.00000e+00 
   @DF-RHF iter   1:  -455.36176425354205   -1.38191e+00   3.22749e-03 DIIS
   @DF-RHF iter   2:  -455.60177261449792   -2.40008e-01   1.87385e-03 DIIS
   @DF-RHF iter   3:  -455.68261195664536   -8.08393e-02   3.30464e-04 DIIS
   @DF-RHF iter   4:  -455.68708684052433   -4.47488e-03   1.46201e-04 DIIS
   @DF-RHF iter   5:  -455.68804934673972   -9.62506e-04   3.42569e-05 DIIS
   @DF-RHF iter   6:  -455.68812373495695   -7.43882e-05   1.66630e-05 DIIS
   @DF-RHF iter   7:  -455.68814332704807   -1.95921e-05   5.43697e-06 DIIS
   @DF-RHF iter   8:  -455.68814649214681   -3.16510e-06   1.43684e-06 DIIS
   @DF-RHF iter   9:  -455.68814672554748   -2.33401e-07   3.01141e-07 DIIS
   @DF-RHF iter  10:  -455.68814673318570   -7.63822e-09   7.94250e-08 DIIS
   @DF-RHF iter  11:  -455.68814673359321   -4.07510e-10   2.54773e-08 DIIS
   @DF-RHF iter  12:  -455.68814673363744   -4.42242e-11   6.03254e-09 DIIS
   @DF-RHF iter  13:  -455.68814673364011   -2.67164e-12   1.27397e-09 DIIS
   @DF-RHF iter  14:  -455.68814673364051   -3.97904e-13   4.44254e-10 DIIS
   @DF-RHF iter  15:  -455.68814673364017    3.41061e-13   1.81211e-10 DIIS
   @DF-RHF iter  16:  -455.68814673364062   -4.54747e-13   5.60933e-11 DIIS
  Energy and wave function converged.


  ==> Post-Iterations <==

    Orbital Energies [Eh]
    ---------------------

    Doubly Occupied:                                                      

       1A    -20.628912     2A    -20.628880     3A    -20.552224  
       4A    -20.552166     5A    -11.395537     6A    -11.395475  
       7A    -11.250455     8A    -11.250345     9A     -1.475284  
      10A     -1.475243    11A     -1.356908    12A     -1.356856  
      13A     -1.032463    14A     -1.032370    15A     -0.837377  
      16A     -0.837325    17A     -0.702487    18A     -0.702437  
      19A     -0.687912    20A     -0.687843    21A     -0.657195  
      22A     -0.657132    23A     -0.575979    24A     -0.575915  
      25A     -0.569161    26A     -0.569081    27A     -0.560874  
      28A     -0.560767    29A     -0.474759    30A     -0.474709  
      31A     -0.451856    32A     -0.451795  

    Virtual:                                                              

      33A      0.032728    34A      0.032767    35A      0.046160  
      36A      0.046172    37A      0.055561    38A      0.055661  
      39A      0.065143    40A      0.065386    41A      0.099304  
      42A      0.099397    43A      0.117867    44A      0.117949  
      45A      0.118453    46A      0.118457    47A      0.141096  
      48A      0.141164    49A      0.152468    50A      0.152553  
      51A      0.156868    52A      0.157025    53A      0.165130  
      54A      0.165194    55A      0.171869    56A      0.171965  
      57A      0.196843    58A      0.196918    59A      0.209800  
      60A      0.209802    61A      0.233940    62A      0.233970  
      63A      0.235507    64A      0.235596    65A      0.271389  
      66A      0.271495    67A      0.290906    68A      0.290966  
      69A      0.296327    70A      0.296408    71A      0.320404  
      72A      0.320426    73A      0.323387    74A      0.323443  
      75A      0.347815    76A      0.347895    77A      0.371232  
      78A      0.371297    79A      0.379394    80A      0.379476  
      81A      0.394673    82A      0.394748    83A      0.401984  
      84A      0.402056    85A      0.427210    86A      0.427285  
      87A      0.438739    88A      0.438855    89A      0.442530  
      90A      0.442607    91A      0.476118    92A      0.476160  
      93A      0.492882    94A      0.492973    95A      0.525282  
      96A      0.525394    97A      0.537825    98A      0.537918  
      99A      0.554014   100A      0.554098   101A      0.570265  
     102A      0.570380   103A      0.584318   104A      0.584424  
     105A      0.602652   106A      0.602696   107A      0.618771  
     108A      0.618848   109A      0.640850   110A      0.640925  
     111A      0.649840   112A      0.649920   113A      0.667234  
     114A      0.667320   115A      0.684756   116A      0.684841  
     117A      0.697743   118A      0.697821   119A      0.704098  
     120A      0.704201   121A      0.733828   122A      0.733915  
     123A      0.743299   124A      0.743379   125A      0.798987  
     126A      0.799095   127A      0.854131   128A      0.854200  
     129A      0.877409   130A      0.877463   131A      0.912968  
     132A      0.913034   133A      0.950250   134A      0.950319  
     135A      0.954929   136A      0.954990   137A      0.983702  
     138A      0.983761   139A      1.042103   140A      1.042165  
     141A      1.089354   142A      1.089452   143A      1.102374  
     144A      1.102464   145A      1.118906   146A      1.119003  
     147A      1.158088   148A      1.158131   149A      1.172699  
     150A      1.172751   151A      1.176911   152A      1.176980  
     153A      1.236578   154A      1.236633   155A      1.272766  
     156A      1.272818   157A      1.319813   158A      1.319874  
     159A      1.358757   160A      1.358819   161A      1.391015  
     162A      1.391084   163A      1.412996   164A      1.413085  
     165A      1.463381   166A      1.463423   167A      1.468552  
     168A      1.468588   169A      1.546549   170A      1.546647  
     171A      1.635608   172A      1.635665   173A      1.650468  
     174A      1.650536   175A      1.715654   176A      1.715724  
     177A      1.756348   178A      1.756429   179A      1.773415  
     180A      1.773515   181A      1.848608   182A      1.848679  
     183A      1.866038   184A      1.866126   185A      1.884330  
     186A      1.884439   187A      1.967004   188A      1.967061  
     189A      1.980022   190A      1.980081   191A      2.026841  
     192A      2.026928   193A      2.038199   194A      2.038259  
     195A      2.123405   196A      2.123471   197A      2.172591  
     198A      2.172665   199A      2.193683   200A      2.193760  
     201A      2.245306   202A      2.245404   203A      2.254188  
     204A      2.254264   205A      2.272918   206A      2.272987  
     207A      2.312792   208A      2.312865   209A      2.380140  
     210A      2.380228   211A      2.430883   212A      2.430941  
     213A      2.439201   214A      2.439286   215A      2.536845  
     216A      2.536931   217A      2.624140   218A      2.624212  
     219A      2.652835   220A      2.652942   221A      2.784221  
     222A      2.784313   223A      2.834191   224A      2.834270  
     225A      2.886658   226A      2.886746   227A      2.974839  
     228A      2.974899   229A      3.002134   230A      3.002225  
     231A      3.016863   232A      3.016939   233A      3.179493  
     234A      3.179552   235A      3.346694   236A      3.346754  
     237A      3.667270   238A      3.667306   239A      3.690989  
     240A      3.691023   241A      3.737013   242A      3.737056  
     243A      3.760248   244A      3.760301   245A      3.790903  
     246A      3.790951   247A      3.805837   248A      3.805889  
     249A      3.900991   250A      3.901034   251A      4.050946  
     252A      4.050996   253A      4.142925   254A      4.142973  
     255A      4.310516   256A      4.310551  

    Final Occupation by Irrep:
              A 
    DOCC [    32 ]

  @DF-RHF Final Energy:  -455.68814673364062

   => Energetics <=

    Nuclear Repulsion Energy =            271.9429306704298597
    One-Electron Energy =               -1162.4267080260108287
    Two-Electron Energy =                 434.7956306219403473
    Total Energy =                       -455.6881467336406217

Computation Completed


Properties will be evaluated at   0.000000,   0.000000,   0.000000 [a0]

Properties computed using the SCF density matrix

  Nuclear Dipole Moment: [e a0]
     X: -1154.1953      Y:  -225.9483      Z:   648.6309

  Electronic Dipole Moment: [e a0]
     X:  1154.1953      Y:   225.3831      Z:  -648.7970

  Dipole Moment: [e a0]
     X:    -0.0000      Y:    -0.5653      Z:    -0.1661     Total:     0.5892

  Dipole Moment: [D]
     X:    -0.0001      Y:    -1.4368      Z:    -0.4223     Total:     1.4975


*** tstop() called on ds1 at Wed Sep  1 14:07:41 2021
Module time:
	user time   =      14.21 seconds =       0.24 minutes
	system time =       0.40 seconds =       0.01 minutes
	total time  =          3 seconds =       0.05 minutes
Total time:
	user time   =      14.21 seconds =       0.24 minutes
	system time =       0.40 seconds =       0.01 minutes
	total time  =          3 seconds =       0.05 minutes

  //>>>>>>>>>>>>>>>>>>>>>>>>>>>>>>>>>>>//
  //            Monomer A HF           //
  //<<<<<<<<<<<<<<<<<<<<<<<<<<<<<<<<<<<//


*** tstart() called on ds1
*** at Wed Sep  1 14:07:41 2021

   => Loading Basis Set <=

    Name: AUG-CC-PVDZ
    Role: ORBITAL
    Keyword: BASIS
    atoms 1-2, 9-10  entry O          line   254 file /theoryfs2/ds/csargent/miniconda3/envs/cle/share/psi4/basis/aug-cc-pvdz.gbs 
    atoms 3-6, 11-14 entry H          line    40 file /theoryfs2/ds/csargent/miniconda3/envs/cle/share/psi4/basis/aug-cc-pvdz.gbs 
    atoms 7-8, 15-16 entry C          line   182 file /theoryfs2/ds/csargent/miniconda3/envs/cle/share/psi4/basis/aug-cc-pvdz.gbs 


         ---------------------------------------------------------
                                   SCF
               by Justin Turney, Rob Parrish, Andy Simmonett
                          and Daniel G. A. Smith
                              RHF Reference
                        6 Threads,   6675 MiB Core
         ---------------------------------------------------------

  ==> Geometry <==

    Molecular point group: c1
    Full point group: C1

    Geometry (in Bohr), charge = 0, multiplicity = 1:

       Center              X                  Y                   Z               Mass       
    ------------   -----------------  -----------------  -----------------  -----------------
         O           -5.531022370000     2.939402900000     1.977626240000    15.994914619570
         O           -2.407088860000     0.908177340000     0.049059090000    15.994914619570
         H           -0.503048870000     1.375792050000     4.638809080000     1.007825032230
         H            0.000000000000     4.251042850000     3.090722380000     1.007825032230
         H           -2.389482150000     4.019167790000     5.401950410000     1.007825032230
         H           -3.747714110000     0.471479300000    -1.215575120000     1.007825032230
         C           -1.418597820000     2.985005000000     3.844051900000    12.000000000000
         C           -3.322637810000     2.286288140000     1.912214130000    12.000000000000
      Gh(O)         -30.537581900000    -8.654350330000    18.330654730000    15.994914619570
      Gh(O)         -33.661515410000   -10.685575900000    16.402087570000    15.994914619570
      Gh(H)         -35.565555400000   -10.217961190000    20.991837570000     1.007825032230
      Gh(H)         -36.068604270000    -7.342710380000    19.443750870000     1.007825032230
      Gh(H)         -33.679122120000    -7.574585450000    21.754978900000     1.007825032230
      Gh(H)         -32.320890160000   -11.122273940000    15.137453370000     1.007825032230
      Gh(C)         -34.650006440000    -8.608748240000    20.197080380000    12.000000000000
      Gh(C)         -32.745966460000    -9.307465100000    18.265242620000    12.000000000000

  Running in c1 symmetry.

  Rotational constants: A =      0.06101  B =      0.00066  C =      0.00066 [cm^-1]
  Rotational constants: A =   1829.00873  B =     19.78604  C =     19.67503 [MHz]
  Nuclear repulsion =  121.748430210971620

  Charge       = 0
  Multiplicity = 1
  Electrons    = 32
  Nalpha       = 16
  Nbeta        = 16

  ==> Algorithm <==

  SCF Algorithm Type is DF.
  DIIS enabled.
  MOM disabled.
  Fractional occupation disabled.
  Guess Type is SAD.
  Energy threshold   = 1.00e-10
  Density threshold  = 1.00e-10
  Integral threshold = 1.00e-12

  ==> Primary Basis <==

  Basis Set: AUG-CC-PVDZ
    Blend: AUG-CC-PVDZ
    Number of shells: 112
    Number of basis functions: 256
    Number of Cartesian functions: 272
    Spherical Harmonics?: true
    Max angular momentum: 2

   => Loading Basis Set <=

    Name: (AUG-CC-PVDZ AUX)
    Role: JKFIT
    Keyword: DF_BASIS_SCF
    atoms 1-2, 9-10  entry O          line   270 file /theoryfs2/ds/csargent/miniconda3/envs/cle/share/psi4/basis/aug-cc-pvdz-jkfit.gbs 
    atoms 3-6, 11-14 entry H          line    70 file /theoryfs2/ds/csargent/miniconda3/envs/cle/share/psi4/basis/aug-cc-pvdz-jkfit.gbs 
    atoms 7-8, 15-16 entry C          line   154 file /theoryfs2/ds/csargent/miniconda3/envs/cle/share/psi4/basis/aug-cc-pvdz-jkfit.gbs 

  ==> Integral Setup <==

  ==> DiskDFJK: Density-Fitted J/K Matrices <==

    J tasked:                  Yes
    K tasked:                  Yes
    wK tasked:                  No
    OpenMP threads:              6
    Integrals threads:           6
    Memory [MiB]:             5006
    Algorithm:                Core
    Integral Cache:           LOAD
    Schwarz Cutoff:          1E-12
    Fitting Condition:       1E-10

   => Auxiliary Basis Set <=

  Basis Set: (AUG-CC-PVDZ AUX)
    Blend: AUG-CC-PVDZ-JKFIT
    Number of shells: 320
    Number of basis functions: 944
    Number of Cartesian functions: 1088
    Spherical Harmonics?: true
    Max angular momentum: 3

  Minimum eigenvalue in the overlap matrix is 1.0277546403E-04.
  Reciprocal condition number of the overlap matrix is 9.6539165240E-06.
    Using symmetric orthogonalization.

  ==> Pre-Iterations <==

  SCF Guess: Superposition of Atomic Densities via on-the-fly atomic UHF (no occupation information).

   -------------------------
    Irrep   Nso     Nmo    
   -------------------------
     A        256     256 
   -------------------------
    Total     256     256
   -------------------------

  ==> Iterations <==

                           Total Energy        Delta E     RMS |[F,P]|

   @DF-RHF iter SAD:  -226.98992942881503   -2.26990e+02   0.00000e+00 
   @DF-RHF iter   1:  -227.68091168069969   -6.90982e-01   2.28211e-03 DIIS
   @DF-RHF iter   2:  -227.80091445377224   -1.20003e-01   1.32478e-03 DIIS
   @DF-RHF iter   3:  -227.84131987297255   -4.04054e-02   2.33581e-04 DIIS
   @DF-RHF iter   4:  -227.84355633650574   -2.23646e-03   1.03339e-04 DIIS
   @DF-RHF iter   5:  -227.84403723750754   -4.80901e-04   2.42136e-05 DIIS
   @DF-RHF iter   6:  -227.84407440550441   -3.71680e-05   1.17797e-05 DIIS
   @DF-RHF iter   7:  -227.84408419363029   -9.78813e-06   3.84272e-06 DIIS
   @DF-RHF iter   8:  -227.84408577521720   -1.58159e-06   1.01577e-06 DIIS
   @DF-RHF iter   9:  -227.84408589186705   -1.16650e-07   2.12953e-07 DIIS
   @DF-RHF iter  10:  -227.84408589568807   -3.82101e-09   5.61608e-08 DIIS
   @DF-RHF iter  11:  -227.84408589589134   -2.03272e-10   1.80147e-08 DIIS
   @DF-RHF iter  12:  -227.84408589591359   -2.22542e-11   4.26466e-09 DIIS
   @DF-RHF iter  13:  -227.84408589591493   -1.33582e-12   8.93569e-10 DIIS
   @DF-RHF iter  14:  -227.84408589591533   -3.97904e-13   2.86711e-10 DIIS
   @DF-RHF iter  15:  -227.84408589591533    0.00000e+00   1.08059e-10 DIIS
   @DF-RHF iter  16:  -227.84408589591530    2.84217e-14   2.86098e-11 DIIS
  Energy and wave function converged.


  ==> Post-Iterations <==

    Orbital Energies [Eh]
    ---------------------

    Doubly Occupied:                                                      

       1A    -20.629476     2A    -20.552804     3A    -11.396108  
       4A    -11.250979     5A     -1.475853     6A     -1.357486  
       7A     -1.032999     8A     -0.837930     9A     -0.703065  
      10A     -0.688465    11A     -0.657749    12A     -0.576538  
      13A     -0.569697    14A     -0.561403    15A     -0.475343  
      16A     -0.452434  

    Virtual:                                                              

      17A      0.025297    18A      0.032214    19A      0.045627  
      20A      0.047393    21A      0.055084    22A      0.056023  
      23A      0.057045    24A      0.064645    25A      0.085972  
      26A      0.098769    27A      0.105139    28A      0.112747  
      29A      0.117323    30A      0.117843    31A      0.117857  
      32A      0.140545    33A      0.140936    34A      0.141904  
      35A      0.147356    36A      0.151976    37A      0.156356  
      38A      0.164577    39A      0.171320    40A      0.176937  
      41A      0.196303    42A      0.206195    43A      0.209237  
      44A      0.215174    45A      0.226837    46A      0.233376  
      47A      0.234963    48A      0.244651    49A      0.260882  
      50A      0.265387    51A      0.270849    52A      0.277283  
      53A      0.286022    54A      0.290295    55A      0.295802  
      56A      0.319834    57A      0.322781    58A      0.332803  
      59A      0.336727    60A      0.347275    61A      0.369997  
      62A      0.370652    63A      0.378870    64A      0.394119  
      65A      0.399805    66A      0.401429    67A      0.410296  
      68A      0.426690    69A      0.431686    70A      0.438218  
      71A      0.438441    72A      0.442006    73A      0.461030  
      74A      0.475555    75A      0.490794    76A      0.492357  
      77A      0.497864    78A      0.517093    79A      0.524763  
      80A      0.537262    81A      0.542333    82A      0.544104  
      83A      0.553487    84A      0.560177    85A      0.569740  
      86A      0.583791    87A      0.587335    88A      0.602101  
      89A      0.616896    90A      0.618231    91A      0.636801  
      92A      0.637642    93A      0.640311    94A      0.649301  
      95A      0.666705    96A      0.675696    97A      0.684210  
      98A      0.690494    99A      0.697190   100A      0.701362  
     101A      0.703571   102A      0.728637   103A      0.733289  
     104A      0.742748   105A      0.754201   106A      0.760841  
     107A      0.787691   108A      0.798460   109A      0.816301  
     110A      0.820636   111A      0.848766   112A      0.853581  
     113A      0.876833   114A      0.888739   115A      0.896959  
     116A      0.912403   117A      0.948180   118A      0.949697  
     119A      0.954375   120A      0.958667   121A      0.976474  
     122A      0.983144   123A      1.038551   124A      1.041547  
     125A      1.045775   126A      1.088819   127A      1.101839  
     128A      1.106979   129A      1.118367   130A      1.157520  
     131A      1.163162   132A      1.172141   133A      1.176359  
     134A      1.191459   135A      1.236033   136A      1.261253  
     137A      1.270847   138A      1.272187   139A      1.319230  
     140A      1.330157   141A      1.358181   142A      1.384706  
     143A      1.390440   144A      1.396841   145A      1.412451  
     146A      1.435282   147A      1.458946   148A      1.462795  
     149A      1.467976   150A      1.468237   151A      1.470111  
     152A      1.538132   153A      1.546014   154A      1.569893  
     155A      1.635048   156A      1.649915   157A      1.684283  
     158A      1.715101   159A      1.718076   160A      1.755800  
     161A      1.772884   162A      1.800582   163A      1.848039  
     164A      1.865503   165A      1.883401   166A      1.883811  
     167A      1.937571   168A      1.966454   169A      1.979453  
     170A      2.026298   171A      2.037642   172A      2.071333  
     173A      2.122848   174A      2.172049   175A      2.193137  
     176A      2.244771   177A      2.251453   178A      2.253643  
     179A      2.265486   180A      2.272354   181A      2.274544  
     182A      2.303543   183A      2.312246   184A      2.337152  
     185A      2.339658   186A      2.362696   187A      2.377133  
     188A      2.379604   189A      2.430330   190A      2.438663  
     191A      2.467759   192A      2.506456   193A      2.536303  
     194A      2.586586   195A      2.623585   196A      2.652307  
     197A      2.665296   198A      2.698897   199A      2.754929  
     200A      2.783681   201A      2.786789   202A      2.824810  
     203A      2.833647   204A      2.886121   205A      2.916605  
     206A      2.974291   207A      3.001602   208A      3.016316  
     209A      3.043333   210A      3.178935   211A      3.183059  
     212A      3.279209   213A      3.311334   214A      3.346124  
     215A      3.357515   216A      3.432166   217A      3.487340  
     218A      3.663450   219A      3.666705   220A      3.690423  
     221A      3.736441   222A      3.740778   223A      3.759662  
     224A      3.790324   225A      3.805251   226A      3.900417  
     227A      4.026835   228A      4.050368   229A      4.142340  
     230A      4.154381   231A      4.309953   232A      4.505708  
     233A      4.617620   234A      4.725615   235A      4.926683  
     236A      4.970517   237A      4.978746   238A      5.002460  
     239A      5.017608   240A      5.034470   241A      5.053171  
     242A      5.222744   243A      5.244907   244A      5.615949  
     245A      5.661967   246A      5.792092   247A      5.869827  
     248A      6.053581   249A      6.229653   250A      6.521531  
     251A      6.791034   252A      7.093746   253A     18.346962  
     254A     18.941472   255A     33.526352   256A     33.564326  

    Final Occupation by Irrep:
              A 
    DOCC [    16 ]

  @DF-RHF Final Energy:  -227.84408589591530

   => Energetics <=

    Nuclear Repulsion Energy =            121.7484302109716197
    One-Electron Energy =                -552.7483714414544238
    Two-Electron Energy =                 203.1558553345675193
    Total Energy =                       -227.8440858959152990

Computation Completed


Properties will be evaluated at   0.000000,   0.000000,   0.000000 [a0]

Properties computed using the SCF density matrix

  Nuclear Dipole Moment: [e a0]
     X:   -98.5925      Y:    72.5259      Z:    62.6670

  Electronic Dipole Moment: [e a0]
     X:    99.4206      Y:   -72.8088      Z:   -62.7502

  Dipole Moment: [e a0]
     X:     0.8281      Y:    -0.2829      Z:    -0.0832     Total:     0.8790

  Dipole Moment: [D]
     X:     2.1048      Y:    -0.7191      Z:    -0.2116     Total:     2.2342


*** tstop() called on ds1 at Wed Sep  1 14:07:44 2021
Module time:
	user time   =      10.30 seconds =       0.17 minutes
	system time =       0.19 seconds =       0.00 minutes
	total time  =          3 seconds =       0.05 minutes
Total time:
	user time   =      24.70 seconds =       0.41 minutes
	system time =       0.60 seconds =       0.01 minutes
	total time  =          6 seconds =       0.10 minutes

  //>>>>>>>>>>>>>>>>>>>>>>>>>>>>>>>>>>>//
  //            Monomer B HF           //
  //<<<<<<<<<<<<<<<<<<<<<<<<<<<<<<<<<<<//


*** tstart() called on ds1
*** at Wed Sep  1 14:07:44 2021

   => Loading Basis Set <=

    Name: AUG-CC-PVDZ
    Role: ORBITAL
    Keyword: BASIS
    atoms 1-2, 9-10  entry O          line   254 file /theoryfs2/ds/csargent/miniconda3/envs/cle/share/psi4/basis/aug-cc-pvdz.gbs 
    atoms 3-6, 11-14 entry H          line    40 file /theoryfs2/ds/csargent/miniconda3/envs/cle/share/psi4/basis/aug-cc-pvdz.gbs 
    atoms 7-8, 15-16 entry C          line   182 file /theoryfs2/ds/csargent/miniconda3/envs/cle/share/psi4/basis/aug-cc-pvdz.gbs 


         ---------------------------------------------------------
                                   SCF
               by Justin Turney, Rob Parrish, Andy Simmonett
                          and Daniel G. A. Smith
                              RHF Reference
                        6 Threads,   6675 MiB Core
         ---------------------------------------------------------

  ==> Geometry <==

    Molecular point group: c1
    Full point group: C1

    Geometry (in Bohr), charge = 0, multiplicity = 1:

       Center              X                  Y                   Z               Mass       
    ------------   -----------------  -----------------  -----------------  -----------------
      Gh(O)          -5.531022370000     2.939402900000     1.977626240000    15.994914619570
      Gh(O)          -2.407088860000     0.908177340000     0.049059090000    15.994914619570
      Gh(H)          -0.503048870000     1.375792050000     4.638809080000     1.007825032230
      Gh(H)           0.000000000000     4.251042850000     3.090722380000     1.007825032230
      Gh(H)          -2.389482150000     4.019167790000     5.401950410000     1.007825032230
      Gh(H)          -3.747714110000     0.471479300000    -1.215575120000     1.007825032230
      Gh(C)          -1.418597820000     2.985005000000     3.844051900000    12.000000000000
      Gh(C)          -3.322637810000     2.286288140000     1.912214130000    12.000000000000
         O          -30.537581900000    -8.654350330000    18.330654730000    15.994914619570
         O          -33.661515410000   -10.685575900000    16.402087570000    15.994914619570
         H          -35.565555400000   -10.217961190000    20.991837570000     1.007825032230
         H          -36.068604270000    -7.342710380000    19.443750870000     1.007825032230
         H          -33.679122120000    -7.574585450000    21.754978900000     1.007825032230
         H          -32.320890160000   -11.122273940000    15.137453370000     1.007825032230
         C          -34.650006440000    -8.608748240000    20.197080380000    12.000000000000
         C          -32.745966460000    -9.307465100000    18.265242620000    12.000000000000

  Running in c1 symmetry.

  Rotational constants: A =      0.06101  B =      0.00066  C =      0.00066 [cm^-1]
  Rotational constants: A =   1829.00873  B =     19.78604  C =     19.67503 [MHz]
  Nuclear repulsion =  121.748430166405967

  Charge       = 0
  Multiplicity = 1
  Electrons    = 32
  Nalpha       = 16
  Nbeta        = 16

  ==> Algorithm <==

  SCF Algorithm Type is DF.
  DIIS enabled.
  MOM disabled.
  Fractional occupation disabled.
  Guess Type is SAD.
  Energy threshold   = 1.00e-10
  Density threshold  = 1.00e-10
  Integral threshold = 1.00e-12

  ==> Primary Basis <==

  Basis Set: AUG-CC-PVDZ
    Blend: AUG-CC-PVDZ
    Number of shells: 112
    Number of basis functions: 256
    Number of Cartesian functions: 272
    Spherical Harmonics?: true
    Max angular momentum: 2

   => Loading Basis Set <=

    Name: (AUG-CC-PVDZ AUX)
    Role: JKFIT
    Keyword: DF_BASIS_SCF
    atoms 1-2, 9-10  entry O          line   270 file /theoryfs2/ds/csargent/miniconda3/envs/cle/share/psi4/basis/aug-cc-pvdz-jkfit.gbs 
    atoms 3-6, 11-14 entry H          line    70 file /theoryfs2/ds/csargent/miniconda3/envs/cle/share/psi4/basis/aug-cc-pvdz-jkfit.gbs 
    atoms 7-8, 15-16 entry C          line   154 file /theoryfs2/ds/csargent/miniconda3/envs/cle/share/psi4/basis/aug-cc-pvdz-jkfit.gbs 

  ==> Integral Setup <==

  ==> DiskDFJK: Density-Fitted J/K Matrices <==

    J tasked:                  Yes
    K tasked:                  Yes
    wK tasked:                  No
    OpenMP threads:              6
    Integrals threads:           6
    Memory [MiB]:             5006
    Algorithm:                Core
    Integral Cache:           LOAD
    Schwarz Cutoff:          1E-12
    Fitting Condition:       1E-10

   => Auxiliary Basis Set <=

  Basis Set: (AUG-CC-PVDZ AUX)
    Blend: AUG-CC-PVDZ-JKFIT
    Number of shells: 320
    Number of basis functions: 944
    Number of Cartesian functions: 1088
    Spherical Harmonics?: true
    Max angular momentum: 3

  Minimum eigenvalue in the overlap matrix is 1.0277546403E-04.
  Reciprocal condition number of the overlap matrix is 9.6539165240E-06.
    Using symmetric orthogonalization.

  ==> Pre-Iterations <==

  SCF Guess: Superposition of Atomic Densities via on-the-fly atomic UHF (no occupation information).

   -------------------------
    Irrep   Nso     Nmo    
   -------------------------
     A        256     256 
   -------------------------
    Total     256     256
   -------------------------

  ==> Iterations <==

                           Total Energy        Delta E     RMS |[F,P]|

   @DF-RHF iter SAD:  -226.98992942512086   -2.26990e+02   0.00000e+00 
   @DF-RHF iter   1:  -227.68091168181002   -6.90982e-01   2.28211e-03 DIIS
   @DF-RHF iter   2:  -227.80091445466428   -1.20003e-01   1.32478e-03 DIIS
   @DF-RHF iter   3:  -227.84131987395889   -4.04054e-02   2.33581e-04 DIIS
   @DF-RHF iter   4:  -227.84355633750749   -2.23646e-03   1.03339e-04 DIIS
   @DF-RHF iter   5:  -227.84403723851281   -4.80901e-04   2.42136e-05 DIIS
   @DF-RHF iter   6:  -227.84407440651020   -3.71680e-05   1.17797e-05 DIIS
   @DF-RHF iter   7:  -227.84408419463620   -9.78813e-06   3.84272e-06 DIIS
   @DF-RHF iter   8:  -227.84408577622267   -1.58159e-06   1.01577e-06 DIIS
   @DF-RHF iter   9:  -227.84408589287352   -1.16651e-07   2.12954e-07 DIIS
   @DF-RHF iter  10:  -227.84408589669388   -3.82036e-09   5.61608e-08 DIIS
   @DF-RHF iter  11:  -227.84408589689750   -2.03613e-10   1.80148e-08 DIIS
   @DF-RHF iter  12:  -227.84408589691952   -2.20268e-11   4.26466e-09 DIIS
   @DF-RHF iter  13:  -227.84408589692080   -1.27898e-12   8.93569e-10 DIIS
   @DF-RHF iter  14:  -227.84408589692083   -2.84217e-14   2.86710e-10 DIIS
   @DF-RHF iter  15:  -227.84408589692089   -5.68434e-14   1.08058e-10 DIIS
   @DF-RHF iter  16:  -227.84408589692117   -2.84217e-13   2.86095e-11 DIIS
  Energy and wave function converged.


  ==> Post-Iterations <==

    Orbital Energies [Eh]
    ---------------------

    Doubly Occupied:                                                      

       1A    -20.629476     2A    -20.552804     3A    -11.396108  
       4A    -11.250979     5A     -1.475853     6A     -1.357486  
       7A     -1.032999     8A     -0.837930     9A     -0.703065  
      10A     -0.688465    11A     -0.657749    12A     -0.576538  
      13A     -0.569697    14A     -0.561403    15A     -0.475343  
      16A     -0.452434  

    Virtual:                                                              

      17A      0.025377    18A      0.032214    19A      0.045627  
      20A      0.047419    21A      0.055084    22A      0.056132  
      23A      0.057182    24A      0.064645    25A      0.086033  
      26A      0.098769    27A      0.105179    28A      0.112820  
      29A      0.117323    30A      0.117857    31A      0.117996  
      32A      0.140545    33A      0.141012    34A      0.141994  
      35A      0.147516    36A      0.151976    37A      0.156356  
      38A      0.164577    39A      0.171320    40A      0.176982  
      41A      0.196303    42A      0.206230    43A      0.209237  
      44A      0.215206    45A      0.226876    46A      0.233376  
      47A      0.234963    48A      0.244718    49A      0.260930  
      50A      0.265425    51A      0.270849    52A      0.277338  
      53A      0.286074    54A      0.290295    55A      0.295802  
      56A      0.319834    57A      0.322781    58A      0.332885  
      59A      0.336869    60A      0.347275    61A      0.370122  
      62A      0.370652    63A      0.378870    64A      0.394119  
      65A      0.399925    66A      0.401429    67A      0.410405  
      68A      0.426690    69A      0.431780    70A      0.438218  
      71A      0.438533    72A      0.442006    73A      0.461035  
      74A      0.475555    75A      0.490858    76A      0.492357  
      77A      0.497908    78A      0.517156    79A      0.524763  
      80A      0.537262    81A      0.542356    82A      0.544219  
      83A      0.553487    84A      0.560257    85A      0.569740  
      86A      0.583791    87A      0.587433    88A      0.602101  
      89A      0.616953    90A      0.618231    91A      0.636890  
      92A      0.637707    93A      0.640311    94A      0.649301  
      95A      0.666705    96A      0.675765    97A      0.684210  
      98A      0.690594    99A      0.697190   100A      0.701460  
     101A      0.703571   102A      0.728752   103A      0.733289  
     104A      0.742748   105A      0.754297   106A      0.760965  
     107A      0.787782   108A      0.798460   109A      0.816413  
     110A      0.820755   111A      0.848869   112A      0.853581  
     113A      0.876833   114A      0.888853   115A      0.897025  
     116A      0.912403   117A      0.948263   118A      0.949697  
     119A      0.954375   120A      0.958754   121A      0.976550  
     122A      0.983144   123A      1.038609   124A      1.041547  
     125A      1.045839   126A      1.088819   127A      1.101839  
     128A      1.107048   129A      1.118367   130A      1.157520  
     131A      1.163210   132A      1.172141   133A      1.176359  
     134A      1.191502   135A      1.236033   136A      1.261287  
     137A      1.270881   138A      1.272187   139A      1.319230  
     140A      1.330201   141A      1.358181   142A      1.384746  
     143A      1.390440   144A      1.396875   145A      1.412451  
     146A      1.435334   147A      1.458969   148A      1.462795  
     149A      1.467976   150A      1.468276   151A      1.470146  
     152A      1.538175   153A      1.546014   154A      1.569937  
     155A      1.635048   156A      1.649915   157A      1.684330  
     158A      1.715101   159A      1.718127   160A      1.755800  
     161A      1.772884   162A      1.800624   163A      1.848039  
     164A      1.865503   165A      1.883533   166A      1.883811  
     167A      1.937687   168A      1.966454   169A      1.979453  
     170A      2.026298   171A      2.037642   172A      2.071443  
     173A      2.122848   174A      2.172049   175A      2.193137  
     176A      2.244771   177A      2.251590   178A      2.253643  
     179A      2.265611   180A      2.272354   181A      2.274575  
     182A      2.303654   183A      2.312246   184A      2.337273  
     185A      2.339789   186A      2.362785   187A      2.377207  
     188A      2.379604   189A      2.430330   190A      2.438663  
     191A      2.467818   192A      2.506479   193A      2.536303  
     194A      2.586662   195A      2.623585   196A      2.652307  
     197A      2.665362   198A      2.698999   199A      2.755040  
     200A      2.783681   201A      2.786907   202A      2.824912  
     203A      2.833647   204A      2.886121   205A      2.916666  
     206A      2.974291   207A      3.001602   208A      3.016316  
     209A      3.043422   210A      3.178935   211A      3.183159  
     212A      3.279315   213A      3.311429   214A      3.346124  
     215A      3.357614   216A      3.432251   217A      3.487456  
     218A      3.663528   219A      3.666705   220A      3.690423  
     221A      3.736441   222A      3.740815   223A      3.759662  
     224A      3.790324   225A      3.805251   226A      3.900417  
     227A      4.026896   228A      4.050368   229A      4.142340  
     230A      4.154392   231A      4.309953   232A      4.505754  
     233A      4.617659   234A      4.725711   235A      4.926721  
     236A      4.970563   237A      4.978774   238A      5.002501  
     239A      5.017643   240A      5.034500   241A      5.053275  
     242A      5.222816   243A      5.245002   244A      5.615967  
     245A      5.661999   246A      5.792118   247A      5.869875  
     248A      6.053623   249A      6.229701   250A      6.521553  
     251A      6.791060   252A      7.093783   253A     18.347059  
     254A     18.941562   255A     33.526397   256A     33.564343  

    Final Occupation by Irrep:
              A 
    DOCC [    16 ]

  @DF-RHF Final Energy:  -227.84408589692117

   => Energetics <=

    Nuclear Repulsion Energy =            121.7484301664059672
    One-Electron Energy =                -552.7483713573135446
    Two-Electron Energy =                 203.1558552939864057
    Total Energy =                       -227.8440858969211718

Computation Completed


Properties will be evaluated at   0.000000,   0.000000,   0.000000 [a0]

Properties computed using the SCF density matrix

  Nuclear Dipole Moment: [e a0]
     X: -1055.6028      Y:  -298.4742      Z:   585.9639

  Electronic Dipole Moment: [e a0]
     X:  1054.7747      Y:   298.1913      Z:  -586.0471

  Dipole Moment: [e a0]
     X:    -0.8281      Y:    -0.2829      Z:    -0.0832     Total:     0.8790

  Dipole Moment: [D]
     X:    -2.1048      Y:    -0.7191      Z:    -0.2116     Total:     2.2342


*** tstop() called on ds1 at Wed Sep  1 14:07:46 2021
Module time:
	user time   =      10.27 seconds =       0.17 minutes
	system time =       0.15 seconds =       0.00 minutes
	total time  =          2 seconds =       0.03 minutes
Total time:
	user time   =      35.26 seconds =       0.59 minutes
	system time =       0.76 seconds =       0.01 minutes
	total time  =          8 seconds =       0.13 minutes
  Constructing Basis Sets for SAPT...

   => Loading Basis Set <=

    Name: (AUG-CC-PVDZ AUX)
    Role: RIFIT
    Keyword: DF_BASIS_SAPT
    atoms 1-2, 9-10  entry O          line   204 file /theoryfs2/ds/csargent/miniconda3/envs/cle/share/psi4/basis/aug-cc-pvdz-ri.gbs 
    atoms 3-6, 11-14 entry H          line    30 file /theoryfs2/ds/csargent/miniconda3/envs/cle/share/psi4/basis/aug-cc-pvdz-ri.gbs 
    atoms 7-8, 15-16 entry C          line   112 file /theoryfs2/ds/csargent/miniconda3/envs/cle/share/psi4/basis/aug-cc-pvdz-ri.gbs 


  //>>>>>>>>>>>>>>>>>>>>>>>>>>>>>>>>>>>//
  //               SAPT0               //
  //<<<<<<<<<<<<<<<<<<<<<<<<<<<<<<<<<<<//


*** tstart() called on ds1
*** at Wed Sep  1 14:07:46 2021

        SAPT0  
    Ed Hohenstein
     6 June 2009

      Orbital Information
  --------------------------
    NSO        =       256
    NMO        =       256
    NRI        =       760
    NOCC A     =        16
    NOCC B     =        16
    FOCC A     =         4
    FOCC B     =         4
    NVIR A     =       240
    NVIR B     =       240

    Elst10,r            =     0.000025106965 [Eh]
    Exch10              =    -0.000000000000 [Eh]
    Exch10 (S^2)        =    -0.000000000000 [Eh]

    Iter     Energy [mEh]          dE [mEh]         Residual      Time [s]
       1      -0.00002223       0.000022228       0.041737498             0
       2      -0.00002199      -0.000000236       0.014887099             0
       3      -0.00002366       0.000001665       0.005992815             0
       4      -0.00002419       0.000000531       0.001358047             0
       5      -0.00002410      -0.000000090       0.000789978             0
       6      -0.00002407      -0.000000028       0.000232264             0
       7      -0.00002408       0.000000010       0.000065855             0
       8      -0.00002408       0.000000002       0.000016278             0
       9      -0.00002408      -0.000000000       0.000004698             0
      10      -0.00002408      -0.000000000       0.000001559             0
      11      -0.00002408       0.000000000       0.000000587             0

    CHF Iterations converged


    Iter     Energy [mEh]          dE [mEh]         Residual      Time [s]
       1      -0.00001854       0.000018540       0.041631090             1
       2      -0.00001826      -0.000000279       0.014117417             1
       3      -0.00001988       0.000001622       0.006084498             1
       4      -0.00002036       0.000000472       0.001523417             1
       5      -0.00002021      -0.000000142       0.000495239             1
       6      -0.00002022       0.000000005       0.000159951             1
       7      -0.00002022       0.000000005       0.000046988             1
       8      -0.00002022       0.000000000       0.000013614             1
       9      -0.00002022      -0.000000000       0.000004100             1
      10      -0.00002022      -0.000000000       0.000000990             1

    CHF Iterations converged

    Ind20,r (A<-B)      =    -0.000000024082 [Eh]
    Ind20,r (B<-A)      =    -0.000000020224 [Eh]
    Ind20,r             =    -0.000000044306 [Eh]
    Exch-Ind20,r (A<-B) =     0.000000000000 [Eh]
    Exch-Ind20,r (B<-A) =     0.000000000000 [Eh]
    Exch-Ind20,r        =     0.000000000000 [Eh]
    Disp20              =    -0.000000260120 [Eh]
    Disp20 (SS)         =    -0.000000130060 [Eh]
    Disp20 (OS)         =    -0.000000130060 [Eh]
    Exch-Disp20         =     0.000000000000 [Eh]
    Exch-Disp20 (SS)    =     0.000000000000 [Eh]
    Exch-Disp20 (OS)    =     0.000000000000 [Eh]

    SAPT Results 
  --------------------------------------------------------------------------------------------------------
    Electrostatics                  0.02510697 [mEh]       0.01575486 [kcal/mol]       0.06591833 [kJ/mol]
      Elst10,r                      0.02510697 [mEh]       0.01575486 [kcal/mol]       0.06591833 [kJ/mol]

    Exchange                       -0.00000000 [mEh]      -0.00000000 [kcal/mol]      -0.00000000 [kJ/mol]
      Exch10                       -0.00000000 [mEh]      -0.00000000 [kcal/mol]      -0.00000000 [kJ/mol]
      Exch10(S^2)                  -0.00000000 [mEh]      -0.00000000 [kcal/mol]      -0.00000000 [kJ/mol]

    Induction                      -0.00004777 [mEh]      -0.00002998 [kcal/mol]      -0.00012542 [kJ/mol]
      Ind20,r                      -0.00004431 [mEh]      -0.00002780 [kcal/mol]      -0.00011633 [kJ/mol]
      Exch-Ind20,r                  0.00000000 [mEh]       0.00000000 [kcal/mol]       0.00000000 [kJ/mol]
      delta HF,r (2)               -0.00000346 [mEh]      -0.00000217 [kcal/mol]      -0.00000909 [kJ/mol]

    Dispersion                     -0.00026012 [mEh]      -0.00016323 [kcal/mol]      -0.00068294 [kJ/mol]
      Disp20                       -0.00026012 [mEh]      -0.00016323 [kcal/mol]      -0.00068294 [kJ/mol]
      Exch-Disp20                   0.00000000 [mEh]       0.00000000 [kcal/mol]       0.00000000 [kJ/mol]
      Disp20 (SS)                  -0.00013006 [mEh]      -0.00008161 [kcal/mol]      -0.00034147 [kJ/mol]
      Disp20 (OS)                  -0.00013006 [mEh]      -0.00008161 [kcal/mol]      -0.00034147 [kJ/mol]
      Exch-Disp20 (SS)              0.00000000 [mEh]       0.00000000 [kcal/mol]       0.00000000 [kJ/mol]
      Exch-Disp20 (OS)              0.00000000 [mEh]       0.00000000 [kcal/mol]       0.00000000 [kJ/mol]

  Total HF                          0.02505920 [mEh]       0.01572488 [kcal/mol]       0.06579291 [kJ/mol]
  Total SAPT0                       0.02479908 [mEh]       0.01556166 [kcal/mol]       0.06510996 [kJ/mol]

  Special recipe for scaled SAPT0 (see Manual):
    Electrostatics sSAPT0           0.02510697 [mEh]       0.01575486 [kcal/mol]       0.06591833 [kJ/mol]
    Exchange sSAPT0                -0.00000000 [mEh]      -0.00000000 [kcal/mol]      -0.00000000 [kJ/mol]
    Induction sSAPT0               -0.00004777 [mEh]      -0.00002998 [kcal/mol]      -0.00012542 [kJ/mol]
    Dispersion sSAPT0              -0.00026012 [mEh]      -0.00016323 [kcal/mol]      -0.00068294 [kJ/mol]
  Total sSAPT0                      0.02479908 [mEh]       0.01556166 [kcal/mol]       0.06510996 [kJ/mol]
  --------------------------------------------------------------------------------------------------------

*** tstop() called on ds1 at Wed Sep  1 14:07:52 2021
Module time:
	user time   =      27.39 seconds =       0.46 minutes
	system time =       2.35 seconds =       0.04 minutes
	total time  =          6 seconds =       0.10 minutes
Total time:
	user time   =      63.42 seconds =       1.06 minutes
	system time =       3.14 seconds =       0.05 minutes
	total time  =         14 seconds =       0.23 minutes


Warning! sapt0 does not have an associated derived wavefunction.The returned wavefunction is the dimer SCF wavefunction.


    Psi4 stopped on: Wednesday, 01 September 2021 02:07PM
    Psi4 wall time for execution: 0:00:13.90

*** Psi4 exiting successfully. Buy a developer a beer!
