
    -----------------------------------------------------------------------
          Psi4: An Open-Source Ab Initio Electronic Structure Package
                               Psi4 1.4rc3 

                         Git: Rev {HEAD} 080dba6 


    D. G. A. Smith, L. A. Burns, A. C. Simmonett, R. M. Parrish,
    M. C. Schieber, R. Galvelis, P. Kraus, H. Kruse, R. Di Remigio,
    A. Alenaizan, A. M. James, S. Lehtola, J. P. Misiewicz, M. Scheurer,
    R. A. Shaw, J. B. Schriber, Y. Xie, Z. L. Glick, D. A. Sirianni,
    J. S. O'Brien, J. M. Waldrop, A. Kumar, E. G. Hohenstein,
    B. P. Pritchard, B. R. Brooks, H. F. Schaefer III, A. Yu. Sokolov,
    K. Patkowski, A. E. DePrince III, U. Bozkaya, R. A. King,
    F. A. Evangelista, J. M. Turney, T. D. Crawford, C. D. Sherrill,
    J. Chem. Phys. 152(18) 184108 (2020). https://doi.org/10.1063/5.0006002

                            Additional Code Authors
    E. T. Seidl, C. L. Janssen, E. F. Valeev, M. L. Leininger,
    J. F. Gonthier, R. M. Richard, H. R. McAlexander, M. Saitow, X. Wang,
    P. Verma, and M. H. Lechner

             Previous Authors, Complete List of Code Contributors,
                       and Citations for Specific Modules
    https://github.com/psi4/psi4/blob/master/codemeta.json
    https://github.com/psi4/psi4/graphs/contributors
    http://psicode.org/psi4manual/master/introduction.html#citing-psifour

    -----------------------------------------------------------------------


    Psi4 started on: Wednesday, 01 September 2021 02:29PM

    Process ID: 21927
    Host:       ds1
    PSIDATADIR: /theoryfs2/ds/csargent/miniconda3/envs/cle/share/psi4
    Memory:     500.0 MiB
    Threads:    6
    
  ==> Input File <==

--------------------------------------------------------------------------
# PSI4 file produced by CrystaLattE

# Generated from:               acetic_acid.xyz
# Psithon input for N-mer:      2mer-0+479
# Number of atoms per monomer:  [8, 8]
# Number of replicas:           2
# COM priority:                 1.212543033046e-05
# Minimum COM separations:      23.034 
# Separation priority:          1.921352594041e-05
# Minimum monomer separations:  19.758 
# Cutoff priority:              5.146074802317e-07
# Nuclear repulsion energy:     267.0983157609355

memory 7 GB

molecule Dimer_0_479 {
  O           -5.53102237       2.93940290       1.97762624 
  O           -2.40708886       0.90817734       0.04905909 
  H           -0.50304887       1.37579205       4.63880908 
  H            0.00000000       4.25104285       3.09072238 
  H           -2.38948215       4.01916779       5.40195041 
  H           -3.74771411       0.47147930      -1.21557512 
  C           -1.41859782       2.98500500       3.84405190 
  C           -3.32263781       2.28628814       1.91221413 
--
  O           19.76730551      -0.92518151     -36.17944022 
  O           16.64337200      -2.95640708     -38.10800738 
  H           14.73933201      -2.48879236     -33.51825739 
  H           14.23628314       0.38645844     -35.06634408 
  H           16.62576529       0.15458338     -32.75511606 
  H           17.98399725      -3.39310511     -39.37264158 
  C           15.65488096      -0.87957941     -34.31301457 
  C           17.55892095      -1.57829627     -36.24485234 
units = au
no_com
no_reorient
}

set {
  e_convergence 10
  d_convergence 10
  scf_type df
  mp2_type df
  cc_type df
  freeze_core true
}

energy('sapt0/aug-cc-pvdz')

--------------------------------------------------------------------------

  Memory set to   6.519 GiB by Python driver.

Scratch directory: /scratch/csargent/psi4.17562.33784/

Scratch directory: /scratch/csargent/psi4.17562.33784/

  //>>>>>>>>>>>>>>>>>>>>>>>>>>>>>>>>>>>//
  //              Dimer HF             //
  //<<<<<<<<<<<<<<<<<<<<<<<<<<<<<<<<<<<//


*** tstart() called on ds1
*** at Wed Sep  1 14:29:36 2021

   => Loading Basis Set <=

    Name: AUG-CC-PVDZ
    Role: ORBITAL
    Keyword: BASIS
    atoms 1-2, 9-10  entry O          line   254 file /theoryfs2/ds/csargent/miniconda3/envs/cle/share/psi4/basis/aug-cc-pvdz.gbs 
    atoms 3-6, 11-14 entry H          line    40 file /theoryfs2/ds/csargent/miniconda3/envs/cle/share/psi4/basis/aug-cc-pvdz.gbs 
    atoms 7-8, 15-16 entry C          line   182 file /theoryfs2/ds/csargent/miniconda3/envs/cle/share/psi4/basis/aug-cc-pvdz.gbs 


         ---------------------------------------------------------
                                   SCF
               by Justin Turney, Rob Parrish, Andy Simmonett
                          and Daniel G. A. Smith
                              RHF Reference
                        6 Threads,   6675 MiB Core
         ---------------------------------------------------------

  ==> Geometry <==

    Molecular point group: c1
    Full point group: C1

    Geometry (in Bohr), charge = 0, multiplicity = 1:

       Center              X                  Y                   Z               Mass       
    ------------   -----------------  -----------------  -----------------  -----------------
         O           -5.531022370000     2.939402900000     1.977626240000    15.994914619570
         O           -2.407088860000     0.908177340000     0.049059090000    15.994914619570
         H           -0.503048870000     1.375792050000     4.638809080000     1.007825032230
         H            0.000000000000     4.251042850000     3.090722380000     1.007825032230
         H           -2.389482150000     4.019167790000     5.401950410000     1.007825032230
         H           -3.747714110000     0.471479300000    -1.215575120000     1.007825032230
         C           -1.418597820000     2.985005000000     3.844051900000    12.000000000000
         C           -3.322637810000     2.286288140000     1.912214130000    12.000000000000
         O           19.767305510000    -0.925181510000   -36.179440220000    15.994914619570
         O           16.643372000000    -2.956407080000   -38.108007380000    15.994914619570
         H           14.739332010000    -2.488792360000   -33.518257390000     1.007825032230
         H           14.236283140000     0.386458440000   -35.066344080000     1.007825032230
         H           16.625765290000     0.154583380000   -32.755116060000     1.007825032230
         H           17.983997250000    -3.393105110000   -39.372641580000     1.007825032230
         C           15.654880960000    -0.879579410000   -34.313014570000    12.000000000000
         C           17.558920950000    -1.578296270000   -36.244852340000    12.000000000000

  Running in c1 symmetry.

  Rotational constants: A =      0.06583  B =      0.00061  C =      0.00061 [cm^-1]
  Rotational constants: A =   1973.60554  B =     18.33709  C =     18.25643 [MHz]
  Nuclear repulsion =  267.098315747940944

  Charge       = 0
  Multiplicity = 1
  Electrons    = 64
  Nalpha       = 32
  Nbeta        = 32

  ==> Algorithm <==

  SCF Algorithm Type is DF.
  DIIS enabled.
  MOM disabled.
  Fractional occupation disabled.
  Guess Type is SAD.
  Energy threshold   = 1.00e-10
  Density threshold  = 1.00e-10
  Integral threshold = 1.00e-12

  ==> Primary Basis <==

  Basis Set: AUG-CC-PVDZ
    Blend: AUG-CC-PVDZ
    Number of shells: 112
    Number of basis functions: 256
    Number of Cartesian functions: 272
    Spherical Harmonics?: true
    Max angular momentum: 2

   => Loading Basis Set <=

    Name: (AUG-CC-PVDZ AUX)
    Role: JKFIT
    Keyword: DF_BASIS_SCF
    atoms 1-2, 9-10  entry O          line   270 file /theoryfs2/ds/csargent/miniconda3/envs/cle/share/psi4/basis/aug-cc-pvdz-jkfit.gbs 
    atoms 3-6, 11-14 entry H          line    70 file /theoryfs2/ds/csargent/miniconda3/envs/cle/share/psi4/basis/aug-cc-pvdz-jkfit.gbs 
    atoms 7-8, 15-16 entry C          line   154 file /theoryfs2/ds/csargent/miniconda3/envs/cle/share/psi4/basis/aug-cc-pvdz-jkfit.gbs 

  ==> Integral Setup <==

  ==> DiskDFJK: Density-Fitted J/K Matrices <==

    J tasked:                  Yes
    K tasked:                  Yes
    wK tasked:                  No
    OpenMP threads:              6
    Integrals threads:           6
    Memory [MiB]:             5006
    Algorithm:                Core
    Integral Cache:           SAVE
    Schwarz Cutoff:          1E-12
    Fitting Condition:       1E-10

   => Auxiliary Basis Set <=

  Basis Set: (AUG-CC-PVDZ AUX)
    Blend: AUG-CC-PVDZ-JKFIT
    Number of shells: 320
    Number of basis functions: 944
    Number of Cartesian functions: 1088
    Spherical Harmonics?: true
    Max angular momentum: 3

  Minimum eigenvalue in the overlap matrix is 1.0277546656E-04.
  Reciprocal condition number of the overlap matrix is 9.6539167597E-06.
    Using symmetric orthogonalization.

  ==> Pre-Iterations <==

  SCF Guess: Superposition of Atomic Densities via on-the-fly atomic UHF (no occupation information).

   -------------------------
    Irrep   Nso     Nmo    
   -------------------------
     A        256     256 
   -------------------------
    Total     256     256
   -------------------------

  ==> Iterations <==

                           Total Energy        Delta E     RMS |[F,P]|

   @DF-RHF iter SAD:  -453.97985885620744   -4.53980e+02   0.00000e+00 
   @DF-RHF iter   1:  -455.36181864479431   -1.38196e+00   3.22740e-03 DIIS
   @DF-RHF iter   2:  -455.60182574971731   -2.40007e-01   1.87353e-03 DIIS
   @DF-RHF iter   3:  -455.68263762026635   -8.08119e-02   3.30333e-04 DIIS
   @DF-RHF iter   4:  -455.68711059734824   -4.47298e-03   1.46143e-04 DIIS
   @DF-RHF iter   5:  -455.68807240685726   -9.61810e-04   3.42431e-05 DIIS
   @DF-RHF iter   6:  -455.68814674530364   -7.43384e-05   1.66591e-05 DIIS
   @DF-RHF iter   7:  -455.68816632172121   -1.95764e-05   5.43440e-06 DIIS
   @DF-RHF iter   8:  -455.68816948482123   -3.16310e-06   1.43655e-06 DIIS
   @DF-RHF iter   9:  -455.68816971812669   -2.33305e-07   3.01205e-07 DIIS
   @DF-RHF iter  10:  -455.68816972577014   -7.64345e-09   7.94371e-08 DIIS
   @DF-RHF iter  11:  -455.68816972617759   -4.07454e-10   2.54795e-08 DIIS
   @DF-RHF iter  12:  -455.68816972622159   -4.39968e-11   6.03194e-09 DIIS
   @DF-RHF iter  13:  -455.68816972622477   -3.18323e-12   1.26459e-09 DIIS
   @DF-RHF iter  14:  -455.68816972622420    5.68434e-13   4.07844e-10 DIIS
   @DF-RHF iter  15:  -455.68816972622426   -5.68434e-14   1.53826e-10 DIIS
   @DF-RHF iter  16:  -455.68816972622506   -7.95808e-13   4.08642e-11 DIIS
  Energy and wave function converged.


  ==> Post-Iterations <==

    Orbital Energies [Eh]
    ---------------------

    Doubly Occupied:                                                      

       1A    -20.629713     2A    -20.629711     3A    -20.553051  
       4A    -20.553021     5A    -11.396357     6A    -11.396324  
       7A    -11.251248     8A    -11.251170     9A     -1.476093  
      10A     -1.476081    11A     -1.357731    12A     -1.357708  
      13A     -1.033261    14A     -1.033199    15A     -0.838176  
      16A     -0.838154    17A     -0.703310    18A     -0.703287  
      19A     -0.688718    20A     -0.688678    21A     -0.657998  
      22A     -0.657966    23A     -0.576788    24A     -0.576754  
      25A     -0.569955    26A     -0.569903    27A     -0.561670  
      28A     -0.561597    29A     -0.475587    30A     -0.475565  
      31A     -0.452682    32A     -0.452649  

    Virtual:                                                              

      33A      0.031969    34A      0.031987    35A      0.045379  
      36A      0.045385    37A      0.054817    38A      0.054906  
      39A      0.064341    40A      0.064492    41A      0.098499  
      42A      0.098569    43A      0.117077    44A      0.117108  
      45A      0.117607    46A      0.117639    47A      0.140296  
      48A      0.140321    49A      0.151721    50A      0.151773  
      51A      0.156078    52A      0.156177    53A      0.164321  
      54A      0.164379    55A      0.171061    56A      0.171113  
      57A      0.196044    58A      0.196095    59A      0.208986  
      60A      0.209008    61A      0.233137    62A      0.233151  
      63A      0.234709    64A      0.234747    65A      0.270582  
      66A      0.270654    67A      0.290054    68A      0.290075  
      69A      0.295543    70A      0.295597    71A      0.319594  
      72A      0.319599    73A      0.322538    74A      0.322564  
      75A      0.347015    76A      0.347073    77A      0.370400  
      78A      0.370439    79A      0.378608    80A      0.378669  
      81A      0.393865    82A      0.393909    83A      0.401176  
      84A      0.401221    85A      0.426437    86A      0.426483  
      87A      0.437952    88A      0.438014    89A      0.441745  
      90A      0.441810    91A      0.475313    92A      0.475324  
      93A      0.492097    94A      0.492156    95A      0.524497  
      96A      0.524569    97A      0.537000    98A      0.537063  
      99A      0.553226   100A      0.553283   101A      0.569470  
     102A      0.569545   103A      0.583524   104A      0.583596  
     105A      0.601858   106A      0.601870   107A      0.617974  
     108A      0.618020   109A      0.640057   110A      0.640102  
     111A      0.649041   112A      0.649097   113A      0.666445  
     114A      0.666501   115A      0.683951   116A      0.684003  
     117A      0.696933   118A      0.696986   119A      0.703303  
     120A      0.703378   121A      0.733032   122A      0.733083  
     123A      0.742489   124A      0.742544   125A      0.798191  
     126A      0.798268   127A      0.853329   128A      0.853367  
     129A      0.876588   130A      0.876613   131A      0.912155  
     132A      0.912186   133A      0.949446   134A      0.949483  
     135A      0.954124   136A      0.954159   137A      0.982894  
     138A      0.982927   139A      1.041299   140A      1.041329  
     141A      1.088555   142A      1.088623   143A      1.101575  
     144A      1.101643   145A      1.118105   146A      1.118164  
     147A      1.157279   148A      1.157292   149A      1.171894  
     150A      1.171920   151A      1.176106   152A      1.176147  
     153A      1.235788   154A      1.235810   155A      1.271941  
     156A      1.271967   157A      1.318983   158A      1.319011  
     159A      1.357933   160A      1.357965   161A      1.390187  
     162A      1.390230   163A      1.412191   164A      1.412249  
     165A      1.462552   166A      1.462570   167A      1.467736  
     168A      1.467745   169A      1.545751   170A      1.545814  
     171A      1.634799   172A      1.634830   173A      1.649665  
     174A      1.649700   175A      1.714849   176A      1.714888  
     177A      1.755544   178A      1.755593   179A      1.772619  
     180A      1.772688   181A      1.847788   182A      1.847828  
     183A      1.865242   184A      1.865299   185A      1.883542  
     186A      1.883620   187A      1.966207   188A      1.966234  
     189A      1.979206   190A      1.979234   191A      2.026039  
     192A      2.026094   193A      2.037393   194A      2.037425  
     195A      2.122598   196A      2.122632   197A      2.171794  
     198A      2.171838   199A      2.192881   200A      2.192929  
     201A      2.244507   202A      2.244573   203A      2.253387  
     204A      2.253434   205A      2.272102   206A      2.272144  
     207A      2.311992   208A      2.312032   209A      2.379343  
     210A      2.379402   211A      2.430082   212A      2.430110  
     213A      2.438403   214A      2.438459   215A      2.536044  
     216A      2.536099   217A      2.623332   218A      2.623373  
     219A      2.652039   220A      2.652114   221A      2.783420  
     222A      2.783478   223A      2.833390   224A      2.833439  
     225A      2.885860   226A      2.885922   227A      2.974041  
     228A      2.974076   229A      3.001341   230A      3.001397  
     231A      3.016061   232A      3.016105   233A      3.178688  
     234A      3.178716   235A      3.345876   236A      3.345907  
     237A      3.666467   238A      3.666473   239A      3.690185  
     240A      3.690190   241A      3.736200   242A      3.736213  
     243A      3.759417   244A      3.759442   245A      3.790080  
     246A      3.790101   247A      3.805006   248A      3.805031  
     249A      3.900175   250A      3.900189   251A      4.050124  
     252A      4.050145   253A      4.142097   254A      4.142118  
     255A      4.309714   256A      4.309720  

    Final Occupation by Irrep:
              A 
    DOCC [    32 ]

  @DF-RHF Final Energy:  -455.68816972622506

   => Energetics <=

    Nuclear Repulsion Energy =            267.0983157479409442
    One-Electron Energy =               -1152.6847560625230926
    Two-Electron Energy =                 429.8982705883571498
    Total Energy =                       -455.6881697262250555

Computation Completed


Properties will be evaluated at   0.000000,   0.000000,   0.000000 [a0]

Properties computed using the SCF density matrix

  Nuclear Dipole Moment: [e a0]
     X:   455.5611      Y:    21.3851      Z: -1095.6922

  Electronic Dipole Moment: [e a0]
     X:  -455.5609      Y:   -21.9507      Z:  1095.5257

  Dipole Moment: [e a0]
     X:     0.0002      Y:    -0.5656      Z:    -0.1664     Total:     0.5896

  Dipole Moment: [D]
     X:     0.0004      Y:    -1.4377      Z:    -0.4230     Total:     1.4987


*** tstop() called on ds1 at Wed Sep  1 14:29:39 2021
Module time:
	user time   =      13.96 seconds =       0.23 minutes
	system time =       0.39 seconds =       0.01 minutes
	total time  =          3 seconds =       0.05 minutes
Total time:
	user time   =      13.96 seconds =       0.23 minutes
	system time =       0.39 seconds =       0.01 minutes
	total time  =          3 seconds =       0.05 minutes

  //>>>>>>>>>>>>>>>>>>>>>>>>>>>>>>>>>>>//
  //            Monomer A HF           //
  //<<<<<<<<<<<<<<<<<<<<<<<<<<<<<<<<<<<//


*** tstart() called on ds1
*** at Wed Sep  1 14:29:39 2021

   => Loading Basis Set <=

    Name: AUG-CC-PVDZ
    Role: ORBITAL
    Keyword: BASIS
    atoms 1-2, 9-10  entry O          line   254 file /theoryfs2/ds/csargent/miniconda3/envs/cle/share/psi4/basis/aug-cc-pvdz.gbs 
    atoms 3-6, 11-14 entry H          line    40 file /theoryfs2/ds/csargent/miniconda3/envs/cle/share/psi4/basis/aug-cc-pvdz.gbs 
    atoms 7-8, 15-16 entry C          line   182 file /theoryfs2/ds/csargent/miniconda3/envs/cle/share/psi4/basis/aug-cc-pvdz.gbs 


         ---------------------------------------------------------
                                   SCF
               by Justin Turney, Rob Parrish, Andy Simmonett
                          and Daniel G. A. Smith
                              RHF Reference
                        6 Threads,   6675 MiB Core
         ---------------------------------------------------------

  ==> Geometry <==

    Molecular point group: c1
    Full point group: C1

    Geometry (in Bohr), charge = 0, multiplicity = 1:

       Center              X                  Y                   Z               Mass       
    ------------   -----------------  -----------------  -----------------  -----------------
         O           -5.531022370000     2.939402900000     1.977626240000    15.994914619570
         O           -2.407088860000     0.908177340000     0.049059090000    15.994914619570
         H           -0.503048870000     1.375792050000     4.638809080000     1.007825032230
         H            0.000000000000     4.251042850000     3.090722380000     1.007825032230
         H           -2.389482150000     4.019167790000     5.401950410000     1.007825032230
         H           -3.747714110000     0.471479300000    -1.215575120000     1.007825032230
         C           -1.418597820000     2.985005000000     3.844051900000    12.000000000000
         C           -3.322637810000     2.286288140000     1.912214130000    12.000000000000
      Gh(O)          19.767305510000    -0.925181510000   -36.179440220000    15.994914619570
      Gh(O)          16.643372000000    -2.956407080000   -38.108007380000    15.994914619570
      Gh(H)          14.739332010000    -2.488792360000   -33.518257390000     1.007825032230
      Gh(H)          14.236283140000     0.386458440000   -35.066344080000     1.007825032230
      Gh(H)          16.625765290000     0.154583380000   -32.755116060000     1.007825032230
      Gh(H)          17.983997250000    -3.393105110000   -39.372641580000     1.007825032230
      Gh(C)          15.654880960000    -0.879579410000   -34.313014570000    12.000000000000
      Gh(C)          17.558920950000    -1.578296270000   -36.244852340000    12.000000000000

  Running in c1 symmetry.

  Rotational constants: A =      0.06583  B =      0.00061  C =      0.00061 [cm^-1]
  Rotational constants: A =   1973.60554  B =     18.33709  C =     18.25643 [MHz]
  Nuclear repulsion =  121.748430210971620

  Charge       = 0
  Multiplicity = 1
  Electrons    = 32
  Nalpha       = 16
  Nbeta        = 16

  ==> Algorithm <==

  SCF Algorithm Type is DF.
  DIIS enabled.
  MOM disabled.
  Fractional occupation disabled.
  Guess Type is SAD.
  Energy threshold   = 1.00e-10
  Density threshold  = 1.00e-10
  Integral threshold = 1.00e-12

  ==> Primary Basis <==

  Basis Set: AUG-CC-PVDZ
    Blend: AUG-CC-PVDZ
    Number of shells: 112
    Number of basis functions: 256
    Number of Cartesian functions: 272
    Spherical Harmonics?: true
    Max angular momentum: 2

   => Loading Basis Set <=

    Name: (AUG-CC-PVDZ AUX)
    Role: JKFIT
    Keyword: DF_BASIS_SCF
    atoms 1-2, 9-10  entry O          line   270 file /theoryfs2/ds/csargent/miniconda3/envs/cle/share/psi4/basis/aug-cc-pvdz-jkfit.gbs 
    atoms 3-6, 11-14 entry H          line    70 file /theoryfs2/ds/csargent/miniconda3/envs/cle/share/psi4/basis/aug-cc-pvdz-jkfit.gbs 
    atoms 7-8, 15-16 entry C          line   154 file /theoryfs2/ds/csargent/miniconda3/envs/cle/share/psi4/basis/aug-cc-pvdz-jkfit.gbs 

  ==> Integral Setup <==

  ==> DiskDFJK: Density-Fitted J/K Matrices <==

    J tasked:                  Yes
    K tasked:                  Yes
    wK tasked:                  No
    OpenMP threads:              6
    Integrals threads:           6
    Memory [MiB]:             5006
    Algorithm:                Core
    Integral Cache:           LOAD
    Schwarz Cutoff:          1E-12
    Fitting Condition:       1E-10

   => Auxiliary Basis Set <=

  Basis Set: (AUG-CC-PVDZ AUX)
    Blend: AUG-CC-PVDZ-JKFIT
    Number of shells: 320
    Number of basis functions: 944
    Number of Cartesian functions: 1088
    Spherical Harmonics?: true
    Max angular momentum: 3

  Minimum eigenvalue in the overlap matrix is 1.0277546656E-04.
  Reciprocal condition number of the overlap matrix is 9.6539167597E-06.
    Using symmetric orthogonalization.

  ==> Pre-Iterations <==

  SCF Guess: Superposition of Atomic Densities via on-the-fly atomic UHF (no occupation information).

   -------------------------
    Irrep   Nso     Nmo    
   -------------------------
     A        256     256 
   -------------------------
    Total     256     256
   -------------------------

  ==> Iterations <==

                           Total Energy        Delta E     RMS |[F,P]|

   @DF-RHF iter SAD:  -226.98992942893864   -2.26990e+02   0.00000e+00 
   @DF-RHF iter   1:  -227.68091168099835   -6.90982e-01   2.28211e-03 DIIS
   @DF-RHF iter   2:  -227.80091445408161   -1.20003e-01   1.32478e-03 DIIS
   @DF-RHF iter   3:  -227.84131987340697   -4.04054e-02   2.33581e-04 DIIS
   @DF-RHF iter   4:  -227.84355633696146   -2.23646e-03   1.03339e-04 DIIS
   @DF-RHF iter   5:  -227.84403723796834   -4.80901e-04   2.42136e-05 DIIS
   @DF-RHF iter   6:  -227.84407440596658   -3.71680e-05   1.17797e-05 DIIS
   @DF-RHF iter   7:  -227.84408419409277   -9.78813e-06   3.84272e-06 DIIS
   @DF-RHF iter   8:  -227.84408577567930   -1.58159e-06   1.01577e-06 DIIS
   @DF-RHF iter   9:  -227.84408589232939   -1.16650e-07   2.12954e-07 DIIS
   @DF-RHF iter  10:  -227.84408589615020   -3.82082e-09   5.61608e-08 DIIS
   @DF-RHF iter  11:  -227.84408589635368   -2.03471e-10   1.80147e-08 DIIS
   @DF-RHF iter  12:  -227.84408589637542   -2.17426e-11   4.26466e-09 DIIS
   @DF-RHF iter  13:  -227.84408589637769   -2.27374e-12   8.93569e-10 DIIS
   @DF-RHF iter  14:  -227.84408589637712    5.68434e-13   2.86710e-10 DIIS
   @DF-RHF iter  15:  -227.84408589637738   -2.55795e-13   1.08058e-10 DIIS
   @DF-RHF iter  16:  -227.84408589637721    1.70530e-13   2.86099e-11 DIIS
  Energy and wave function converged.


  ==> Post-Iterations <==

    Orbital Energies [Eh]
    ---------------------

    Doubly Occupied:                                                      

       1A    -20.629476     2A    -20.552804     3A    -11.396108  
       4A    -11.250979     5A     -1.475853     6A     -1.357486  
       7A     -1.032999     8A     -0.837930     9A     -0.703065  
      10A     -0.688465    11A     -0.657749    12A     -0.576538  
      13A     -0.569697    14A     -0.561403    15A     -0.475343  
      16A     -0.452434  

    Virtual:                                                              

      17A      0.024510    18A      0.032214    19A      0.045627  
      20A      0.046599    21A      0.055084    22A      0.055271  
      23A      0.056242    24A      0.064645    25A      0.085154  
      26A      0.098769    27A      0.104350    28A      0.111937  
      29A      0.117075    30A      0.117323    31A      0.117857  
      32A      0.140126    33A      0.140545    34A      0.141112  
      35A      0.146575    36A      0.151976    37A      0.156356  
      38A      0.164577    39A      0.171320    40A      0.176123  
      41A      0.196303    42A      0.205394    43A      0.209237  
      44A      0.214369    45A      0.226047    46A      0.233376  
      47A      0.234963    48A      0.243812    49A      0.260026  
      50A      0.264580    51A      0.270849    52A      0.276438  
      53A      0.285210    54A      0.290295    55A      0.295802  
      56A      0.319834    57A      0.322781    58A      0.332020  
      59A      0.335963    60A      0.347275    61A      0.369184  
      62A      0.370652    63A      0.378870    64A      0.394119  
      65A      0.399021    66A      0.401429    67A      0.409514  
      68A      0.426690    69A      0.430886    70A      0.437658  
      71A      0.438218    72A      0.442006    73A      0.460231  
      74A      0.475555    75A      0.489996    76A      0.492357  
      77A      0.497058    78A      0.516287    79A      0.524763  
      80A      0.537262    81A      0.541540    82A      0.543316  
      83A      0.553487    84A      0.559385    85A      0.569740  
      86A      0.583791    87A      0.586551    88A      0.602101  
      89A      0.616089    90A      0.618231    91A      0.636001  
      92A      0.636830    93A      0.640311    94A      0.649301  
      95A      0.666705    96A      0.674894    97A      0.684210  
      98A      0.689695    99A      0.697190   100A      0.700563  
     101A      0.703571   102A      0.727855   103A      0.733289  
     104A      0.742748   105A      0.753395   106A      0.760054  
     107A      0.786902   108A      0.798460   109A      0.815514  
     110A      0.819845   111A      0.847979   112A      0.853581  
     113A      0.876833   114A      0.887937   115A      0.896162  
     116A      0.912403   117A      0.947368   118A      0.949697  
     119A      0.954375   120A      0.957869   121A      0.975666  
     122A      0.983144   123A      1.037727   124A      1.041547  
     125A      1.044963   126A      1.088819   127A      1.101839  
     128A      1.106174   129A      1.118367   130A      1.157520  
     131A      1.162338   132A      1.172141   133A      1.176359  
     134A      1.190652   135A      1.236033   136A      1.260421  
     137A      1.270014   138A      1.272187   139A      1.319230  
     140A      1.329343   141A      1.358181   142A      1.383867  
     143A      1.390440   144A      1.396029   145A      1.412451  
     146A      1.434438   147A      1.458131   148A      1.462795  
     149A      1.467421   150A      1.467976   151A      1.469297  
     152A      1.537315   153A      1.546014   154A      1.569071  
     155A      1.635048   156A      1.649915   157A      1.683477  
     158A      1.715101   159A      1.717245   160A      1.755800  
     161A      1.772884   162A      1.799759   163A      1.848039  
     164A      1.865503   165A      1.882622   166A      1.883811  
     167A      1.936785   168A      1.966454   169A      1.979453  
     170A      2.026298   171A      2.037642   172A      2.070537  
     173A      2.122848   174A      2.172049   175A      2.193137  
     176A      2.244771   177A      2.250655   178A      2.253643  
     179A      2.264711   180A      2.272354   181A      2.273749  
     182A      2.302757   183A      2.312246   184A      2.336362  
     185A      2.338884   186A      2.361914   187A      2.376331  
     188A      2.379604   189A      2.430330   190A      2.438663  
     191A      2.466958   192A      2.505660   193A      2.536303  
     194A      2.585782   195A      2.623585   196A      2.652307  
     197A      2.664495   198A      2.698112   199A      2.754144  
     200A      2.783681   201A      2.785995   202A      2.824012  
     203A      2.833647   204A      2.886121   205A      2.915814  
     206A      2.974291   207A      3.001602   208A      3.016316  
     209A      3.042536   210A      3.178935   211A      3.182259  
     212A      3.278423   213A      3.310536   214A      3.346124  
     215A      3.356718   216A      3.431356   217A      3.486545  
     218A      3.662643   219A      3.666705   220A      3.690423  
     221A      3.736441   222A      3.739972   223A      3.759662  
     224A      3.790324   225A      3.805251   226A      3.900417  
     227A      4.026001   228A      4.050368   229A      4.142340  
     230A      4.153590   231A      4.309953   232A      4.504866  
     233A      4.616810   234A      4.724812   235A      4.925844  
     236A      4.969678   237A      4.977938   238A      5.001604  
     239A      5.016793   240A      5.033670   241A      5.052374  
     242A      5.221922   243A      5.244100   244A      5.615161  
     245A      5.661159   246A      5.791276   247A      5.868983  
     248A      6.052746   249A      6.228802   250A      6.520734  
     251A      6.790224   252A      7.092916   253A     18.346163  
     254A     18.940669   255A     33.525491   256A     33.563534  

    Final Occupation by Irrep:
              A 
    DOCC [    16 ]

  @DF-RHF Final Energy:  -227.84408589637721

   => Energetics <=

    Nuclear Repulsion Energy =            121.7484302109716197
    One-Electron Energy =                -552.7483714438753850
    Two-Electron Energy =                 203.1558553365265709
    Total Energy =                       -227.8440858963772087

Computation Completed


Properties will be evaluated at   0.000000,   0.000000,   0.000000 [a0]

Properties computed using the SCF density matrix

  Nuclear Dipole Moment: [e a0]
     X:   -98.5925      Y:    72.5259      Z:    62.6670

  Electronic Dipole Moment: [e a0]
     X:    99.4206      Y:   -72.8088      Z:   -62.7502

  Dipole Moment: [e a0]
     X:     0.8281      Y:    -0.2829      Z:    -0.0832     Total:     0.8790

  Dipole Moment: [D]
     X:     2.1048      Y:    -0.7191      Z:    -0.2116     Total:     2.2342


*** tstop() called on ds1 at Wed Sep  1 14:29:41 2021
Module time:
	user time   =      10.40 seconds =       0.17 minutes
	system time =       0.22 seconds =       0.00 minutes
	total time  =          2 seconds =       0.03 minutes
Total time:
	user time   =      24.57 seconds =       0.41 minutes
	system time =       0.61 seconds =       0.01 minutes
	total time  =          5 seconds =       0.08 minutes

  //>>>>>>>>>>>>>>>>>>>>>>>>>>>>>>>>>>>//
  //            Monomer B HF           //
  //<<<<<<<<<<<<<<<<<<<<<<<<<<<<<<<<<<<//


*** tstart() called on ds1
*** at Wed Sep  1 14:29:41 2021

   => Loading Basis Set <=

    Name: AUG-CC-PVDZ
    Role: ORBITAL
    Keyword: BASIS
    atoms 1-2, 9-10  entry O          line   254 file /theoryfs2/ds/csargent/miniconda3/envs/cle/share/psi4/basis/aug-cc-pvdz.gbs 
    atoms 3-6, 11-14 entry H          line    40 file /theoryfs2/ds/csargent/miniconda3/envs/cle/share/psi4/basis/aug-cc-pvdz.gbs 
    atoms 7-8, 15-16 entry C          line   182 file /theoryfs2/ds/csargent/miniconda3/envs/cle/share/psi4/basis/aug-cc-pvdz.gbs 


         ---------------------------------------------------------
                                   SCF
               by Justin Turney, Rob Parrish, Andy Simmonett
                          and Daniel G. A. Smith
                              RHF Reference
                        6 Threads,   6675 MiB Core
         ---------------------------------------------------------

  ==> Geometry <==

    Molecular point group: c1
    Full point group: C1

    Geometry (in Bohr), charge = 0, multiplicity = 1:

       Center              X                  Y                   Z               Mass       
    ------------   -----------------  -----------------  -----------------  -----------------
      Gh(O)          -5.531022370000     2.939402900000     1.977626240000    15.994914619570
      Gh(O)          -2.407088860000     0.908177340000     0.049059090000    15.994914619570
      Gh(H)          -0.503048870000     1.375792050000     4.638809080000     1.007825032230
      Gh(H)           0.000000000000     4.251042850000     3.090722380000     1.007825032230
      Gh(H)          -2.389482150000     4.019167790000     5.401950410000     1.007825032230
      Gh(H)          -3.747714110000     0.471479300000    -1.215575120000     1.007825032230
      Gh(C)          -1.418597820000     2.985005000000     3.844051900000    12.000000000000
      Gh(C)          -3.322637810000     2.286288140000     1.912214130000    12.000000000000
         O           19.767305510000    -0.925181510000   -36.179440220000    15.994914619570
         O           16.643372000000    -2.956407080000   -38.108007380000    15.994914619570
         H           14.739332010000    -2.488792360000   -33.518257390000     1.007825032230
         H           14.236283140000     0.386458440000   -35.066344080000     1.007825032230
         H           16.625765290000     0.154583380000   -32.755116060000     1.007825032230
         H           17.983997250000    -3.393105110000   -39.372641580000     1.007825032230
         C           15.654880960000    -0.879579410000   -34.313014570000    12.000000000000
         C           17.558920950000    -1.578296270000   -36.244852340000    12.000000000000

  Running in c1 symmetry.

  Rotational constants: A =      0.06583  B =      0.00061  C =      0.00061 [cm^-1]
  Rotational constants: A =   1973.60554  B =     18.33709  C =     18.25643 [MHz]
  Nuclear repulsion =  121.748430158909713

  Charge       = 0
  Multiplicity = 1
  Electrons    = 32
  Nalpha       = 16
  Nbeta        = 16

  ==> Algorithm <==

  SCF Algorithm Type is DF.
  DIIS enabled.
  MOM disabled.
  Fractional occupation disabled.
  Guess Type is SAD.
  Energy threshold   = 1.00e-10
  Density threshold  = 1.00e-10
  Integral threshold = 1.00e-12

  ==> Primary Basis <==

  Basis Set: AUG-CC-PVDZ
    Blend: AUG-CC-PVDZ
    Number of shells: 112
    Number of basis functions: 256
    Number of Cartesian functions: 272
    Spherical Harmonics?: true
    Max angular momentum: 2

   => Loading Basis Set <=

    Name: (AUG-CC-PVDZ AUX)
    Role: JKFIT
    Keyword: DF_BASIS_SCF
    atoms 1-2, 9-10  entry O          line   270 file /theoryfs2/ds/csargent/miniconda3/envs/cle/share/psi4/basis/aug-cc-pvdz-jkfit.gbs 
    atoms 3-6, 11-14 entry H          line    70 file /theoryfs2/ds/csargent/miniconda3/envs/cle/share/psi4/basis/aug-cc-pvdz-jkfit.gbs 
    atoms 7-8, 15-16 entry C          line   154 file /theoryfs2/ds/csargent/miniconda3/envs/cle/share/psi4/basis/aug-cc-pvdz-jkfit.gbs 

  ==> Integral Setup <==

  ==> DiskDFJK: Density-Fitted J/K Matrices <==

    J tasked:                  Yes
    K tasked:                  Yes
    wK tasked:                  No
    OpenMP threads:              6
    Integrals threads:           6
    Memory [MiB]:             5006
    Algorithm:                Core
    Integral Cache:           LOAD
    Schwarz Cutoff:          1E-12
    Fitting Condition:       1E-10

   => Auxiliary Basis Set <=

  Basis Set: (AUG-CC-PVDZ AUX)
    Blend: AUG-CC-PVDZ-JKFIT
    Number of shells: 320
    Number of basis functions: 944
    Number of Cartesian functions: 1088
    Spherical Harmonics?: true
    Max angular momentum: 3

  Minimum eigenvalue in the overlap matrix is 1.0277546656E-04.
  Reciprocal condition number of the overlap matrix is 9.6539167597E-06.
    Using symmetric orthogonalization.

  ==> Pre-Iterations <==

  SCF Guess: Superposition of Atomic Densities via on-the-fly atomic UHF (no occupation information).

   -------------------------
    Irrep   Nso     Nmo    
   -------------------------
     A        256     256 
   -------------------------
    Total     256     256
   -------------------------

  ==> Iterations <==

                           Total Energy        Delta E     RMS |[F,P]|

   @DF-RHF iter SAD:  -226.98992942671987   -2.26990e+02   0.00000e+00 
   @DF-RHF iter   1:  -227.68091168027379   -6.90982e-01   2.28211e-03 DIIS
   @DF-RHF iter   2:  -227.80091445330231   -1.20003e-01   1.32478e-03 DIIS
   @DF-RHF iter   3:  -227.84131987277436   -4.04054e-02   2.33581e-04 DIIS
   @DF-RHF iter   4:  -227.84355633632927   -2.23646e-03   1.03339e-04 DIIS
   @DF-RHF iter   5:  -227.84403723733530   -4.80901e-04   2.42136e-05 DIIS
   @DF-RHF iter   6:  -227.84407440533303   -3.71680e-05   1.17797e-05 DIIS
   @DF-RHF iter   7:  -227.84408419345908   -9.78813e-06   3.84272e-06 DIIS
   @DF-RHF iter   8:  -227.84408577504573   -1.58159e-06   1.01577e-06 DIIS
   @DF-RHF iter   9:  -227.84408589169621   -1.16650e-07   2.12953e-07 DIIS
   @DF-RHF iter  10:  -227.84408589551634   -3.82013e-09   5.61608e-08 DIIS
   @DF-RHF iter  11:  -227.84408589572013   -2.03784e-10   1.80147e-08 DIIS
   @DF-RHF iter  12:  -227.84408589574221   -2.20837e-11   4.26466e-09 DIIS
   @DF-RHF iter  13:  -227.84408589574389   -1.67688e-12   8.93569e-10 DIIS
   @DF-RHF iter  14:  -227.84408589574394   -5.68434e-14   2.86711e-10 DIIS
   @DF-RHF iter  15:  -227.84408589574360    3.41061e-13   1.08058e-10 DIIS
   @DF-RHF iter  16:  -227.84408589574409   -4.83169e-13   2.86095e-11 DIIS
  Energy and wave function converged.


  ==> Post-Iterations <==

    Orbital Energies [Eh]
    ---------------------

    Doubly Occupied:                                                      

       1A    -20.629476     2A    -20.552804     3A    -11.396108  
       4A    -11.250979     5A     -1.475853     6A     -1.357486  
       7A     -1.032999     8A     -0.837930     9A     -0.703065  
      10A     -0.688465    11A     -0.657749    12A     -0.576538  
      13A     -0.569697    14A     -0.561403    15A     -0.475343  
      16A     -0.452434  

    Virtual:                                                              

      17A      0.024561    18A      0.032214    19A      0.045627  
      20A      0.046592    21A      0.055084    22A      0.055358  
      23A      0.056335    24A      0.064645    25A      0.085174  
      26A      0.098769    27A      0.104382    28A      0.111988  
      29A      0.117195    30A      0.117323    31A      0.117857  
      32A      0.140172    33A      0.140545    34A      0.141174  
      35A      0.146670    36A      0.151976    37A      0.156356  
      38A      0.164577    39A      0.171320    40A      0.176159  
      41A      0.196303    42A      0.205398    43A      0.209237  
      44A      0.214378    45A      0.226053    46A      0.233376  
      47A      0.234963    48A      0.243839    49A      0.260052  
      50A      0.264597    51A      0.270849    52A      0.276458  
      53A      0.285233    54A      0.290295    55A      0.295802  
      56A      0.319834    57A      0.322781    58A      0.332089  
      59A      0.336047    60A      0.347275    61A      0.369271  
      62A      0.370652    63A      0.378870    64A      0.394119  
      65A      0.399111    66A      0.401429    67A      0.409598  
      68A      0.426690    69A      0.430952    70A      0.437728  
      71A      0.438218    72A      0.442006    73A      0.460215  
      74A      0.475555    75A      0.490022    76A      0.492357  
      77A      0.497086    78A      0.516314    79A      0.524763  
      80A      0.537262    81A      0.541532    82A      0.543389  
      83A      0.553487    84A      0.559439    85A      0.569740  
      86A      0.583791    87A      0.586622    88A      0.602101  
      89A      0.616112    90A      0.618231    91A      0.636053  
      92A      0.636870    93A      0.640311    94A      0.649301  
      95A      0.666705    96A      0.674933    97A      0.684210  
      98A      0.689762    99A      0.697190   100A      0.700632  
     101A      0.703571   102A      0.727942   103A      0.733289  
     104A      0.742748   105A      0.753448   106A      0.760137  
     107A      0.786963   108A      0.798460   109A      0.815597  
     110A      0.819926   111A      0.848049   112A      0.853581  
     113A      0.876833   114A      0.888016   115A      0.896208  
     116A      0.912403   117A      0.947425   118A      0.949697  
     119A      0.954375   120A      0.957923   121A      0.975711  
     122A      0.983144   123A      1.037760   124A      1.041547  
     125A      1.044990   126A      1.088819   127A      1.101839  
     128A      1.106213   129A      1.118367   130A      1.157520  
     131A      1.162357   132A      1.172141   133A      1.176359  
     134A      1.190665   135A      1.236033   136A      1.260426  
     137A      1.270021   138A      1.272187   139A      1.319230  
     140A      1.329357   141A      1.358181   142A      1.383878  
     143A      1.390440   144A      1.396035   145A      1.412451  
     146A      1.434461   147A      1.458127   148A      1.462795  
     149A      1.467429   150A      1.467976   151A      1.469304  
     152A      1.537330   153A      1.546014   154A      1.569083  
     155A      1.635048   156A      1.649915   157A      1.683495  
     158A      1.715101   159A      1.717269   160A      1.755800  
     161A      1.772884   162A      1.799771   163A      1.848039  
     164A      1.865503   165A      1.882723   166A      1.883811  
     167A      1.936865   168A      1.966454   169A      1.979453  
     170A      2.026298   171A      2.037642   172A      2.070609  
     173A      2.122848   174A      2.172049   175A      2.193137  
     176A      2.244771   177A      2.250750   178A      2.253643  
     179A      2.264800   180A      2.272354   181A      2.273759  
     182A      2.302837   183A      2.312246   184A      2.336457  
     185A      2.338974   186A      2.361976   187A      2.376371  
     188A      2.379604   189A      2.430330   190A      2.438663  
     191A      2.466983   192A      2.505656   193A      2.536303  
     194A      2.585825   195A      2.623585   196A      2.652307  
     197A      2.664528   198A      2.698185   199A      2.754222  
     200A      2.783681   201A      2.786070   202A      2.824089  
     203A      2.833647   204A      2.886121   205A      2.915847  
     206A      2.974291   207A      3.001602   208A      3.016316  
     209A      3.042592   210A      3.178935   211A      3.182326  
     212A      3.278496   213A      3.310598   214A      3.346124  
     215A      3.356786   216A      3.431405   217A      3.486625  
     218A      3.662691   219A      3.666705   220A      3.690423  
     221A      3.736441   222A      3.739979   223A      3.759662  
     224A      3.790324   225A      3.805251   226A      3.900417  
     227A      4.026034   228A      4.050368   229A      4.142340  
     230A      4.153574   231A      4.309953   232A      4.504883  
     233A      4.616818   234A      4.724874   235A      4.925854  
     236A      4.969695   237A      4.977935   238A      5.001620  
     239A      5.016800   240A      5.033670   241A      5.052448  
     242A      5.221965   243A      5.244161   244A      5.615149  
     245A      5.661160   246A      5.791274   247A      5.869003  
     248A      6.052759   249A      6.228822   250A      6.520726  
     251A      6.790222   252A      7.092926   253A     18.346226  
     254A     18.940725   255A     33.525511   256A     33.563520  

    Final Occupation by Irrep:
              A 
    DOCC [    16 ]

  @DF-RHF Final Energy:  -227.84408589574409

   => Energetics <=

    Nuclear Repulsion Energy =            121.7484301589097129
    One-Electron Energy =                -552.7483713287668934
    Two-Electron Energy =                 203.1558552741130654
    Total Energy =                       -227.8440858957440867

Computation Completed


Properties will be evaluated at   0.000000,   0.000000,   0.000000 [a0]

Properties computed using the SCF density matrix

  Nuclear Dipole Moment: [e a0]
     X:   554.1536      Y:   -51.1408      Z: -1158.3591

  Electronic Dipole Moment: [e a0]
     X:  -554.9817      Y:    50.8579      Z:  1158.2759

  Dipole Moment: [e a0]
     X:    -0.8281      Y:    -0.2829      Z:    -0.0832     Total:     0.8790

  Dipole Moment: [D]
     X:    -2.1048      Y:    -0.7191      Z:    -0.2116     Total:     2.2342


*** tstop() called on ds1 at Wed Sep  1 14:29:44 2021
Module time:
	user time   =      10.20 seconds =       0.17 minutes
	system time =       0.15 seconds =       0.00 minutes
	total time  =          3 seconds =       0.05 minutes
Total time:
	user time   =      34.94 seconds =       0.58 minutes
	system time =       0.76 seconds =       0.01 minutes
	total time  =          8 seconds =       0.13 minutes
  Constructing Basis Sets for SAPT...

   => Loading Basis Set <=

    Name: (AUG-CC-PVDZ AUX)
    Role: RIFIT
    Keyword: DF_BASIS_SAPT
    atoms 1-2, 9-10  entry O          line   204 file /theoryfs2/ds/csargent/miniconda3/envs/cle/share/psi4/basis/aug-cc-pvdz-ri.gbs 
    atoms 3-6, 11-14 entry H          line    30 file /theoryfs2/ds/csargent/miniconda3/envs/cle/share/psi4/basis/aug-cc-pvdz-ri.gbs 
    atoms 7-8, 15-16 entry C          line   112 file /theoryfs2/ds/csargent/miniconda3/envs/cle/share/psi4/basis/aug-cc-pvdz-ri.gbs 


  //>>>>>>>>>>>>>>>>>>>>>>>>>>>>>>>>>>>//
  //               SAPT0               //
  //<<<<<<<<<<<<<<<<<<<<<<<<<<<<<<<<<<<//


*** tstart() called on ds1
*** at Wed Sep  1 14:29:44 2021

        SAPT0  
    Ed Hohenstein
     6 June 2009

      Orbital Information
  --------------------------
    NSO        =       256
    NMO        =       256
    NRI        =       760
    NOCC A     =        16
    NOCC B     =        16
    FOCC A     =         4
    FOCC B     =         4
    NVIR A     =       240
    NVIR B     =       240

    Elst10,r            =     0.000002087657 [Eh]
    Exch10              =    -0.000000000000 [Eh]
    Exch10 (S^2)        =    -0.000000000000 [Eh]

    Iter     Energy [mEh]          dE [mEh]         Residual      Time [s]
       1      -0.00000285       0.000002846       0.010826446             0
       2      -0.00000331       0.000000465       0.005008730             0
       3      -0.00000346       0.000000149       0.001404931             0
       4      -0.00000347       0.000000014       0.000368608             0
       5      -0.00000347      -0.000000007       0.000145042             1
       6      -0.00000347      -0.000000002       0.000035248             1
       7      -0.00000347       0.000000000       0.000012159             1
       8      -0.00000347       0.000000000       0.000004251             1
       9      -0.00000347      -0.000000000       0.000001778             1
      10      -0.00000347      -0.000000000       0.000000525             1

    CHF Iterations converged


    Iter     Energy [mEh]          dE [mEh]         Residual      Time [s]
       1      -0.00000227       0.000002270       0.009863726             0
       2      -0.00000251       0.000000237       0.004040705             0
       3      -0.00000265       0.000000142       0.001094947             0
       4      -0.00000266       0.000000012       0.000279229             0
       5      -0.00000265      -0.000000007       0.000075831             0
       6      -0.00000265      -0.000000000       0.000036516             0
       7      -0.00000265       0.000000000       0.000017133             0
       8      -0.00000265       0.000000000       0.000005335             1
       9      -0.00000265      -0.000000000       0.000001853             1
      10      -0.00000265      -0.000000000       0.000000566             1

    CHF Iterations converged

    Ind20,r (A<-B)      =    -0.000000003465 [Eh]
    Ind20,r (B<-A)      =    -0.000000002654 [Eh]
    Ind20,r             =    -0.000000006119 [Eh]
    Exch-Ind20,r (A<-B) =     0.000000000000 [Eh]
    Exch-Ind20,r (B<-A) =     0.000000000000 [Eh]
    Exch-Ind20,r        =     0.000000000000 [Eh]
    Disp20              =    -0.000000091570 [Eh]
    Disp20 (SS)         =    -0.000000045785 [Eh]
    Disp20 (OS)         =    -0.000000045785 [Eh]
    Exch-Disp20         =     0.000000000000 [Eh]
    Exch-Disp20 (SS)    =     0.000000000000 [Eh]
    Exch-Disp20 (OS)    =     0.000000000000 [Eh]

    SAPT Results 
  --------------------------------------------------------------------------------------------------------
    Electrostatics                  0.00208766 [mEh]       0.00131002 [kcal/mol]       0.00548114 [kJ/mol]
      Elst10,r                      0.00208766 [mEh]       0.00131002 [kcal/mol]       0.00548114 [kJ/mol]

    Exchange                       -0.00000000 [mEh]      -0.00000000 [kcal/mol]      -0.00000000 [kJ/mol]
      Exch10                       -0.00000000 [mEh]      -0.00000000 [kcal/mol]      -0.00000000 [kJ/mol]
      Exch10(S^2)                  -0.00000000 [mEh]      -0.00000000 [kcal/mol]      -0.00000000 [kJ/mol]

    Induction                      -0.00002176 [mEh]      -0.00001366 [kcal/mol]      -0.00005713 [kJ/mol]
      Ind20,r                      -0.00000612 [mEh]      -0.00000384 [kcal/mol]      -0.00001607 [kJ/mol]
      Exch-Ind20,r                  0.00000000 [mEh]       0.00000000 [kcal/mol]       0.00000000 [kJ/mol]
      delta HF,r (2)               -0.00001564 [mEh]      -0.00000982 [kcal/mol]      -0.00004107 [kJ/mol]

    Dispersion                     -0.00009157 [mEh]      -0.00005746 [kcal/mol]      -0.00024042 [kJ/mol]
      Disp20                       -0.00009157 [mEh]      -0.00005746 [kcal/mol]      -0.00024042 [kJ/mol]
      Exch-Disp20                   0.00000000 [mEh]       0.00000000 [kcal/mol]       0.00000000 [kJ/mol]
      Disp20 (SS)                  -0.00004578 [mEh]      -0.00002873 [kcal/mol]      -0.00012021 [kJ/mol]
      Disp20 (OS)                  -0.00004578 [mEh]      -0.00002873 [kcal/mol]      -0.00012021 [kJ/mol]
      Exch-Disp20 (SS)              0.00000000 [mEh]       0.00000000 [kcal/mol]       0.00000000 [kJ/mol]
      Exch-Disp20 (OS)              0.00000000 [mEh]       0.00000000 [kcal/mol]       0.00000000 [kJ/mol]

  Total HF                          0.00206590 [mEh]       0.00129637 [kcal/mol]       0.00542401 [kJ/mol]
  Total SAPT0                       0.00197433 [mEh]       0.00123891 [kcal/mol]       0.00518359 [kJ/mol]

  Special recipe for scaled SAPT0 (see Manual):
    Electrostatics sSAPT0           0.00208766 [mEh]       0.00131002 [kcal/mol]       0.00548114 [kJ/mol]
    Exchange sSAPT0                -0.00000000 [mEh]      -0.00000000 [kcal/mol]      -0.00000000 [kJ/mol]
    Induction sSAPT0               -0.00002176 [mEh]      -0.00001366 [kcal/mol]      -0.00005713 [kJ/mol]
    Dispersion sSAPT0              -0.00009157 [mEh]      -0.00005746 [kcal/mol]      -0.00024042 [kJ/mol]
  Total sSAPT0                      0.00197433 [mEh]       0.00123891 [kcal/mol]       0.00518359 [kJ/mol]
  --------------------------------------------------------------------------------------------------------

*** tstop() called on ds1 at Wed Sep  1 14:29:49 2021
Module time:
	user time   =      27.02 seconds =       0.45 minutes
	system time =       2.32 seconds =       0.04 minutes
	total time  =          5 seconds =       0.08 minutes
Total time:
	user time   =      62.70 seconds =       1.04 minutes
	system time =       3.10 seconds =       0.05 minutes
	total time  =         13 seconds =       0.22 minutes


Warning! sapt0 does not have an associated derived wavefunction.The returned wavefunction is the dimer SCF wavefunction.


    Psi4 stopped on: Wednesday, 01 September 2021 02:29PM
    Psi4 wall time for execution: 0:00:13.57

*** Psi4 exiting successfully. Buy a developer a beer!
