
    -----------------------------------------------------------------------
          Psi4: An Open-Source Ab Initio Electronic Structure Package
                               Psi4 1.4rc3 

                         Git: Rev {HEAD} 080dba6 


    D. G. A. Smith, L. A. Burns, A. C. Simmonett, R. M. Parrish,
    M. C. Schieber, R. Galvelis, P. Kraus, H. Kruse, R. Di Remigio,
    A. Alenaizan, A. M. James, S. Lehtola, J. P. Misiewicz, M. Scheurer,
    R. A. Shaw, J. B. Schriber, Y. Xie, Z. L. Glick, D. A. Sirianni,
    J. S. O'Brien, J. M. Waldrop, A. Kumar, E. G. Hohenstein,
    B. P. Pritchard, B. R. Brooks, H. F. Schaefer III, A. Yu. Sokolov,
    K. Patkowski, A. E. DePrince III, U. Bozkaya, R. A. King,
    F. A. Evangelista, J. M. Turney, T. D. Crawford, C. D. Sherrill,
    J. Chem. Phys. 152(18) 184108 (2020). https://doi.org/10.1063/5.0006002

                            Additional Code Authors
    E. T. Seidl, C. L. Janssen, E. F. Valeev, M. L. Leininger,
    J. F. Gonthier, R. M. Richard, H. R. McAlexander, M. Saitow, X. Wang,
    P. Verma, and M. H. Lechner

             Previous Authors, Complete List of Code Contributors,
                       and Citations for Specific Modules
    https://github.com/psi4/psi4/blob/master/codemeta.json
    https://github.com/psi4/psi4/graphs/contributors
    http://psicode.org/psi4manual/master/introduction.html#citing-psifour

    -----------------------------------------------------------------------


    Psi4 started on: Wednesday, 01 September 2021 01:41PM

    Process ID: 19343
    Host:       ds1
    PSIDATADIR: /theoryfs2/ds/csargent/miniconda3/envs/cle/share/psi4
    Memory:     500.0 MiB
    Threads:    6
    
  ==> Input File <==

--------------------------------------------------------------------------
# PSI4 file produced by CrystaLattE

# Generated from:               acetic_acid.xyz
# Psithon input for N-mer:      2mer-0+353
# Number of atoms per monomer:  [8, 8]
# Number of replicas:           2
# COM priority:                 1.806959228645e-05
# Minimum COM separations:      20.166 
# Separation priority:          2.743307306278e-05
# Minimum monomer separations:  17.546 
# Cutoff priority:              8.273690677456e-07
# Nuclear repulsion energy:     270.3649196530008

memory 7 GB

molecule Dimer_0_353 {
  O           -5.53102237       2.93940290       1.97762624 
  O           -2.40708886       0.90817734       0.04905909 
  H           -0.50304887       1.37579205       4.63880908 
  H            0.00000000       4.25104285       3.09072238 
  H           -2.38948215       4.01916779       5.40195041 
  H           -3.74771411       0.47147930      -1.21557512 
  C           -1.41859782       2.98500500       3.84405190 
  C           -3.32263781       2.28628814       1.91221413 
--
  O            7.04519948      16.53810254     -30.72843073 
  O           10.16913299      18.56932810     -32.65699789 
  H           12.07317298      18.10171339     -28.06724789 
  H           12.57622185      15.22646259     -29.61533459 
  H           10.18673970      15.45833765     -27.30410656 
  H            8.82850774      19.00602614     -33.92163209 
  C           11.15762403      16.49250044     -28.86200508 
  C            9.25358404      17.19121730     -30.79384284 
units = au
no_com
no_reorient
}

set {
  e_convergence 10
  d_convergence 10
  scf_type df
  mp2_type df
  cc_type df
  freeze_core true
}

energy('sapt0/aug-cc-pvdz')

--------------------------------------------------------------------------

  Memory set to   6.519 GiB by Python driver.

Scratch directory: /scratch/csargent/psi4.17562.33784/

Scratch directory: /scratch/csargent/psi4.17562.33784/

  //>>>>>>>>>>>>>>>>>>>>>>>>>>>>>>>>>>>//
  //              Dimer HF             //
  //<<<<<<<<<<<<<<<<<<<<<<<<<<<<<<<<<<<//


*** tstart() called on ds1
*** at Wed Sep  1 13:41:41 2021

   => Loading Basis Set <=

    Name: AUG-CC-PVDZ
    Role: ORBITAL
    Keyword: BASIS
    atoms 1-2, 9-10  entry O          line   254 file /theoryfs2/ds/csargent/miniconda3/envs/cle/share/psi4/basis/aug-cc-pvdz.gbs 
    atoms 3-6, 11-14 entry H          line    40 file /theoryfs2/ds/csargent/miniconda3/envs/cle/share/psi4/basis/aug-cc-pvdz.gbs 
    atoms 7-8, 15-16 entry C          line   182 file /theoryfs2/ds/csargent/miniconda3/envs/cle/share/psi4/basis/aug-cc-pvdz.gbs 


         ---------------------------------------------------------
                                   SCF
               by Justin Turney, Rob Parrish, Andy Simmonett
                          and Daniel G. A. Smith
                              RHF Reference
                        6 Threads,   6675 MiB Core
         ---------------------------------------------------------

  ==> Geometry <==

    Molecular point group: c1
    Full point group: C1

    Geometry (in Bohr), charge = 0, multiplicity = 1:

       Center              X                  Y                   Z               Mass       
    ------------   -----------------  -----------------  -----------------  -----------------
         O           -5.531022370000     2.939402900000     1.977626240000    15.994914619570
         O           -2.407088860000     0.908177340000     0.049059090000    15.994914619570
         H           -0.503048870000     1.375792050000     4.638809080000     1.007825032230
         H            0.000000000000     4.251042850000     3.090722380000     1.007825032230
         H           -2.389482150000     4.019167790000     5.401950410000     1.007825032230
         H           -3.747714110000     0.471479300000    -1.215575120000     1.007825032230
         C           -1.418597820000     2.985005000000     3.844051900000    12.000000000000
         C           -3.322637810000     2.286288140000     1.912214130000    12.000000000000
         O            7.045199480000    16.538102540000   -30.728430730000    15.994914619570
         O           10.169132990000    18.569328100000   -32.656997890000    15.994914619570
         H           12.073172980000    18.101713390000   -28.067247890000     1.007825032230
         H           12.576221850000    15.226462590000   -29.615334590000     1.007825032230
         H           10.186739700000    15.458337650000   -27.304106560000     1.007825032230
         H            8.828507740000    19.006026140000   -33.921632090000     1.007825032230
         C           11.157624030000    16.492500440000   -28.862005080000    12.000000000000
         C            9.253584040000    17.191217300000   -30.793842840000    12.000000000000

  Running in c1 symmetry.

  Rotational constants: A =      0.04051  B =      0.00075  C =      0.00074 [cm^-1]
  Rotational constants: A =   1214.42666  B =     22.36283  C =     22.10516 [MHz]
  Nuclear repulsion =  270.364919656672157

  Charge       = 0
  Multiplicity = 1
  Electrons    = 64
  Nalpha       = 32
  Nbeta        = 32

  ==> Algorithm <==

  SCF Algorithm Type is DF.
  DIIS enabled.
  MOM disabled.
  Fractional occupation disabled.
  Guess Type is SAD.
  Energy threshold   = 1.00e-10
  Density threshold  = 1.00e-10
  Integral threshold = 1.00e-12

  ==> Primary Basis <==

  Basis Set: AUG-CC-PVDZ
    Blend: AUG-CC-PVDZ
    Number of shells: 112
    Number of basis functions: 256
    Number of Cartesian functions: 272
    Spherical Harmonics?: true
    Max angular momentum: 2

   => Loading Basis Set <=

    Name: (AUG-CC-PVDZ AUX)
    Role: JKFIT
    Keyword: DF_BASIS_SCF
    atoms 1-2, 9-10  entry O          line   270 file /theoryfs2/ds/csargent/miniconda3/envs/cle/share/psi4/basis/aug-cc-pvdz-jkfit.gbs 
    atoms 3-6, 11-14 entry H          line    70 file /theoryfs2/ds/csargent/miniconda3/envs/cle/share/psi4/basis/aug-cc-pvdz-jkfit.gbs 
    atoms 7-8, 15-16 entry C          line   154 file /theoryfs2/ds/csargent/miniconda3/envs/cle/share/psi4/basis/aug-cc-pvdz-jkfit.gbs 

  ==> Integral Setup <==

  ==> DiskDFJK: Density-Fitted J/K Matrices <==

    J tasked:                  Yes
    K tasked:                  Yes
    wK tasked:                  No
    OpenMP threads:              6
    Integrals threads:           6
    Memory [MiB]:             5006
    Algorithm:                Core
    Integral Cache:           SAVE
    Schwarz Cutoff:          1E-12
    Fitting Condition:       1E-10

   => Auxiliary Basis Set <=

  Basis Set: (AUG-CC-PVDZ AUX)
    Blend: AUG-CC-PVDZ-JKFIT
    Number of shells: 320
    Number of basis functions: 944
    Number of Cartesian functions: 1088
    Spherical Harmonics?: true
    Max angular momentum: 3

  Minimum eigenvalue in the overlap matrix is 1.0277545990E-04.
  Reciprocal condition number of the overlap matrix is 9.6539161312E-06.
    Using symmetric orthogonalization.

  ==> Pre-Iterations <==

  SCF Guess: Superposition of Atomic Densities via on-the-fly atomic UHF (no occupation information).

   -------------------------
    Irrep   Nso     Nmo    
   -------------------------
     A        256     256 
   -------------------------
    Total     256     256
   -------------------------

  ==> Iterations <==

                           Total Energy        Delta E     RMS |[F,P]|

   @DF-RHF iter SAD:  -453.97985885639793   -4.53980e+02   0.00000e+00 
   @DF-RHF iter   1:  -455.36181601251258   -1.38196e+00   3.22739e-03 DIIS
   @DF-RHF iter   2:  -455.60181794155670   -2.40002e-01   1.87359e-03 DIIS
   @DF-RHF iter   3:  -455.68263373674313   -8.08158e-02   3.30358e-04 DIIS
   @DF-RHF iter   4:  -455.68710702598145   -4.47329e-03   1.46154e-04 DIIS
   @DF-RHF iter   5:  -455.68806896253636   -9.61937e-04   3.42453e-05 DIIS
   @DF-RHF iter   6:  -455.68814331417269   -7.43516e-05   1.66612e-05 DIIS
   @DF-RHF iter   7:  -455.68816289690375   -1.95827e-05   5.43569e-06 DIIS
   @DF-RHF iter   8:  -455.68816606122897   -3.16433e-06   1.43669e-06 DIIS
   @DF-RHF iter   9:  -455.68816629457956   -2.33351e-07   3.01094e-07 DIIS
   @DF-RHF iter  10:  -455.68816630221647   -7.63691e-09   7.94123e-08 DIIS
   @DF-RHF iter  11:  -455.68816630262319   -4.06715e-10   2.54765e-08 DIIS
   @DF-RHF iter  12:  -455.68816630266707   -4.38831e-11   6.03790e-09 DIIS
   @DF-RHF iter  13:  -455.68816630266991   -2.84217e-12   1.30520e-09 DIIS
   @DF-RHF iter  14:  -455.68816630266986    5.68434e-14   5.45242e-10 DIIS
   @DF-RHF iter  15:  -455.68816630267020   -3.41061e-13   2.08013e-10 DIIS
   @DF-RHF iter  16:  -455.68816630267020    0.00000e+00   5.75206e-11 DIIS
  Energy and wave function converged.


  ==> Post-Iterations <==

    Orbital Energies [Eh]
    ---------------------

    Doubly Occupied:                                                      

       1A    -20.629632     2A    -20.629163     3A    -20.552971  
       4A    -20.552502     5A    -11.396278     6A    -11.395812  
       7A    -11.251179     8A    -11.250728     9A     -1.476012  
      10A     -1.475544    11A     -1.357650    12A     -1.357181  
      13A     -1.033189    14A     -1.032734    15A     -0.838098  
      16A     -0.837633    17A     -0.703229    18A     -0.702761  
      19A     -0.688641    20A     -0.688180    21A     -0.657921  
      22A     -0.657458    23A     -0.576709    24A     -0.576247  
      25A     -0.569883    26A     -0.569426    27A     -0.561601  
      28A     -0.561145    29A     -0.475505    30A     -0.475035  
      31A     -0.452602    32A     -0.452134  

    Virtual:                                                              

      33A      0.032043    34A      0.032500    35A      0.045457  
      36A      0.045951    37A      0.054884    38A      0.055300  
      39A      0.064388    40A      0.064854    41A      0.098573  
      42A      0.099040    43A      0.117159    44A      0.117611  
      45A      0.117688    46A      0.118168    47A      0.140373  
      48A      0.140846    49A      0.151788    50A      0.152223  
      51A      0.156150    52A      0.156596    53A      0.164377  
      54A      0.164847    55A      0.171144    56A      0.171603  
      57A      0.196118    58A      0.196578    59A      0.209090  
      60A      0.209570    61A      0.233216    62A      0.233676  
      63A      0.234786    64A      0.235247    65A      0.270652  
      66A      0.271112    67A      0.290143    68A      0.290607  
      69A      0.295613    70A      0.296068    71A      0.319678  
      72A      0.320154    73A      0.322627    74A      0.323098  
      75A      0.347086    76A      0.347544    77A      0.370480  
      78A      0.370949    79A      0.378680    80A      0.379132  
      81A      0.393939    82A      0.394402    83A      0.401251  
      84A      0.401713    85A      0.426505    86A      0.426952  
      87A      0.438032    88A      0.438487    89A      0.441807  
      90A      0.442261    91A      0.475392    92A      0.475864  
      93A      0.492169    94A      0.492621    95A      0.524567  
      96A      0.525016    97A      0.537073    98A      0.537538  
      99A      0.553298   100A      0.553754   101A      0.569537  
     102A      0.569998   103A      0.583594   104A      0.584049  
     105A      0.601935   106A      0.602404   107A      0.618047  
     108A      0.618512   109A      0.640132   110A      0.640588  
     111A      0.649110   112A      0.649572   113A      0.666521  
     114A      0.666973   115A      0.684023   116A      0.684489  
     117A      0.697006   118A      0.697465   119A      0.703373  
     120A      0.703825   121A      0.733108   122A      0.733562  
     123A      0.742565   124A      0.743023   125A      0.798261  
     126A      0.798714   127A      0.853405   128A      0.853869  
     129A      0.876669   130A      0.877137   131A      0.912233  
     132A      0.912699   133A      0.949524   134A      0.949984  
     135A      0.954198   136A      0.954666   137A      0.982970  
     138A      0.983435   139A      1.041379   140A      1.041840  
     141A      1.088625   142A      1.089080   143A      1.101646  
     144A      1.102099   145A      1.118178   146A      1.118637  
     147A      1.157360   148A      1.157828   149A      1.171973  
     150A      1.172437   151A      1.176182   152A      1.176643  
     153A      1.235865   154A      1.236323   155A      1.272023  
     156A      1.272491   157A      1.319065   158A      1.319534  
     159A      1.358012   160A      1.358479   161A      1.390265  
     162A      1.390732   163A      1.412265   164A      1.412722  
     165A      1.462636   166A      1.463105   167A      1.467818  
     168A      1.468289   169A      1.545823   170A      1.546280  
     171A      1.634874   172A      1.635342   173A      1.649743  
     174A      1.650205   175A      1.714926   176A      1.715388  
     177A      1.755619   178A      1.756079   179A      1.772689  
     180A      1.773142   181A      1.847867   182A      1.848332  
     183A      1.865314   184A      1.865771   185A      1.883610  
     186A      1.884059   187A      1.966283   188A      1.966746  
     189A      1.979285   190A      1.979753   191A      2.026113  
     192A      2.026572   193A      2.037469   194A      2.037935  
     195A      2.122676   196A      2.123141   197A      2.171869  
     198A      2.172328   199A      2.192955   200A      2.193415  
     201A      2.244578   202A      2.245035   203A      2.253462  
     204A      2.253922   205A      2.272179   206A      2.272642  
     207A      2.312067   208A      2.312531   209A      2.379416  
     210A      2.379871   211A      2.430158   212A      2.430625  
     213A      2.438475   214A      2.438933   215A      2.536118  
     216A      2.536575   217A      2.623408   218A      2.623870  
     219A      2.652109   220A      2.652562   221A      2.783491  
     222A      2.783952   223A      2.833465   224A      2.833924  
     225A      2.885930   226A      2.886385   227A      2.974115  
     228A      2.974578   229A      3.001417   230A      3.001871  
     231A      3.016136   232A      3.016597   233A      3.178766  
     234A      3.179229   235A      3.345956   236A      3.346423  
     237A      3.666548   238A      3.667015   239A      3.690266  
     240A      3.690735   241A      3.736281   242A      3.736749  
     243A      3.759499   244A      3.759969   245A      3.790162  
     246A      3.790631   247A      3.805089   248A      3.805558  
     249A      3.900257   250A      3.900726   251A      4.050205  
     252A      4.050674   253A      4.142179   254A      4.142649  
     255A      4.309795   256A      4.310264  

    Final Occupation by Irrep:
              A 
    DOCC [    32 ]

  @DF-RHF Final Energy:  -455.68816630267020

   => Energetics <=

    Nuclear Repulsion Energy =            270.3649196566721571
    One-Electron Energy =               -1159.2366075585905492
    Two-Electron Energy =                 433.1835215992482517
    Total Energy =                       -455.6881663026701972

Computation Completed


Properties will be evaluated at   0.000000,   0.000000,   0.000000 [a0]

Properties computed using the SCF density matrix

  Nuclear Dipole Moment: [e a0]
     X:   205.2540      Y:   623.2802      Z:  -921.2599

  Electronic Dipole Moment: [e a0]
     X:  -203.5986      Y:  -623.2798      Z:   921.0924

  Dipole Moment: [e a0]
     X:     1.6554      Y:     0.0003      Z:    -0.1674     Total:     1.6639

  Dipole Moment: [D]
     X:     4.2077      Y:     0.0008      Z:    -0.4256     Total:     4.2291


*** tstop() called on ds1 at Wed Sep  1 13:41:44 2021
Module time:
	user time   =      14.28 seconds =       0.24 minutes
	system time =       0.42 seconds =       0.01 minutes
	total time  =          3 seconds =       0.05 minutes
Total time:
	user time   =      14.28 seconds =       0.24 minutes
	system time =       0.42 seconds =       0.01 minutes
	total time  =          3 seconds =       0.05 minutes

  //>>>>>>>>>>>>>>>>>>>>>>>>>>>>>>>>>>>//
  //            Monomer A HF           //
  //<<<<<<<<<<<<<<<<<<<<<<<<<<<<<<<<<<<//


*** tstart() called on ds1
*** at Wed Sep  1 13:41:44 2021

   => Loading Basis Set <=

    Name: AUG-CC-PVDZ
    Role: ORBITAL
    Keyword: BASIS
    atoms 1-2, 9-10  entry O          line   254 file /theoryfs2/ds/csargent/miniconda3/envs/cle/share/psi4/basis/aug-cc-pvdz.gbs 
    atoms 3-6, 11-14 entry H          line    40 file /theoryfs2/ds/csargent/miniconda3/envs/cle/share/psi4/basis/aug-cc-pvdz.gbs 
    atoms 7-8, 15-16 entry C          line   182 file /theoryfs2/ds/csargent/miniconda3/envs/cle/share/psi4/basis/aug-cc-pvdz.gbs 


         ---------------------------------------------------------
                                   SCF
               by Justin Turney, Rob Parrish, Andy Simmonett
                          and Daniel G. A. Smith
                              RHF Reference
                        6 Threads,   6675 MiB Core
         ---------------------------------------------------------

  ==> Geometry <==

    Molecular point group: c1
    Full point group: C1

    Geometry (in Bohr), charge = 0, multiplicity = 1:

       Center              X                  Y                   Z               Mass       
    ------------   -----------------  -----------------  -----------------  -----------------
         O           -5.531022370000     2.939402900000     1.977626240000    15.994914619570
         O           -2.407088860000     0.908177340000     0.049059090000    15.994914619570
         H           -0.503048870000     1.375792050000     4.638809080000     1.007825032230
         H            0.000000000000     4.251042850000     3.090722380000     1.007825032230
         H           -2.389482150000     4.019167790000     5.401950410000     1.007825032230
         H           -3.747714110000     0.471479300000    -1.215575120000     1.007825032230
         C           -1.418597820000     2.985005000000     3.844051900000    12.000000000000
         C           -3.322637810000     2.286288140000     1.912214130000    12.000000000000
      Gh(O)           7.045199480000    16.538102540000   -30.728430730000    15.994914619570
      Gh(O)          10.169132990000    18.569328100000   -32.656997890000    15.994914619570
      Gh(H)          12.073172980000    18.101713390000   -28.067247890000     1.007825032230
      Gh(H)          12.576221850000    15.226462590000   -29.615334590000     1.007825032230
      Gh(H)          10.186739700000    15.458337650000   -27.304106560000     1.007825032230
      Gh(H)           8.828507740000    19.006026140000   -33.921632090000     1.007825032230
      Gh(C)          11.157624030000    16.492500440000   -28.862005080000    12.000000000000
      Gh(C)           9.253584040000    17.191217300000   -30.793842840000    12.000000000000

  Running in c1 symmetry.

  Rotational constants: A =      0.04051  B =      0.00075  C =      0.00074 [cm^-1]
  Rotational constants: A =   1214.42666  B =     22.36283  C =     22.10516 [MHz]
  Nuclear repulsion =  121.748430210971620

  Charge       = 0
  Multiplicity = 1
  Electrons    = 32
  Nalpha       = 16
  Nbeta        = 16

  ==> Algorithm <==

  SCF Algorithm Type is DF.
  DIIS enabled.
  MOM disabled.
  Fractional occupation disabled.
  Guess Type is SAD.
  Energy threshold   = 1.00e-10
  Density threshold  = 1.00e-10
  Integral threshold = 1.00e-12

  ==> Primary Basis <==

  Basis Set: AUG-CC-PVDZ
    Blend: AUG-CC-PVDZ
    Number of shells: 112
    Number of basis functions: 256
    Number of Cartesian functions: 272
    Spherical Harmonics?: true
    Max angular momentum: 2

   => Loading Basis Set <=

    Name: (AUG-CC-PVDZ AUX)
    Role: JKFIT
    Keyword: DF_BASIS_SCF
    atoms 1-2, 9-10  entry O          line   270 file /theoryfs2/ds/csargent/miniconda3/envs/cle/share/psi4/basis/aug-cc-pvdz-jkfit.gbs 
    atoms 3-6, 11-14 entry H          line    70 file /theoryfs2/ds/csargent/miniconda3/envs/cle/share/psi4/basis/aug-cc-pvdz-jkfit.gbs 
    atoms 7-8, 15-16 entry C          line   154 file /theoryfs2/ds/csargent/miniconda3/envs/cle/share/psi4/basis/aug-cc-pvdz-jkfit.gbs 

  ==> Integral Setup <==

  ==> DiskDFJK: Density-Fitted J/K Matrices <==

    J tasked:                  Yes
    K tasked:                  Yes
    wK tasked:                  No
    OpenMP threads:              6
    Integrals threads:           6
    Memory [MiB]:             5006
    Algorithm:                Core
    Integral Cache:           LOAD
    Schwarz Cutoff:          1E-12
    Fitting Condition:       1E-10

   => Auxiliary Basis Set <=

  Basis Set: (AUG-CC-PVDZ AUX)
    Blend: AUG-CC-PVDZ-JKFIT
    Number of shells: 320
    Number of basis functions: 944
    Number of Cartesian functions: 1088
    Spherical Harmonics?: true
    Max angular momentum: 3

  Minimum eigenvalue in the overlap matrix is 1.0277545990E-04.
  Reciprocal condition number of the overlap matrix is 9.6539161312E-06.
    Using symmetric orthogonalization.

  ==> Pre-Iterations <==

  SCF Guess: Superposition of Atomic Densities via on-the-fly atomic UHF (no occupation information).

   -------------------------
    Irrep   Nso     Nmo    
   -------------------------
     A        256     256 
   -------------------------
    Total     256     256
   -------------------------

  ==> Iterations <==

                           Total Energy        Delta E     RMS |[F,P]|

   @DF-RHF iter SAD:  -226.98992942899338   -2.26990e+02   0.00000e+00 
   @DF-RHF iter   1:  -227.68091168013839   -6.90982e-01   2.28211e-03 DIIS
   @DF-RHF iter   2:  -227.80091445324328   -1.20003e-01   1.32478e-03 DIIS
   @DF-RHF iter   3:  -227.84131987253355   -4.04054e-02   2.33581e-04 DIIS
   @DF-RHF iter   4:  -227.84355633607265   -2.23646e-03   1.03339e-04 DIIS
   @DF-RHF iter   5:  -227.84403723707680   -4.80901e-04   2.42136e-05 DIIS
   @DF-RHF iter   6:  -227.84407440507425   -3.71680e-05   1.17797e-05 DIIS
   @DF-RHF iter   7:  -227.84408419320067   -9.78813e-06   3.84272e-06 DIIS
   @DF-RHF iter   8:  -227.84408577478726   -1.58159e-06   1.01577e-06 DIIS
   @DF-RHF iter   9:  -227.84408589143726   -1.16650e-07   2.12954e-07 DIIS
   @DF-RHF iter  10:  -227.84408589525788   -3.82062e-09   5.61608e-08 DIIS
   @DF-RHF iter  11:  -227.84408589546189   -2.04011e-10   1.80147e-08 DIIS
   @DF-RHF iter  12:  -227.84408589548363   -2.17426e-11   4.26466e-09 DIIS
   @DF-RHF iter  13:  -227.84408589548502   -1.39266e-12   8.93569e-10 DIIS
   @DF-RHF iter  14:  -227.84408589548497    5.68434e-14   2.86711e-10 DIIS
   @DF-RHF iter  15:  -227.84408589548536   -3.97904e-13   1.08059e-10 DIIS
   @DF-RHF iter  16:  -227.84408589548559   -2.27374e-13   2.86100e-11 DIIS
  Energy and wave function converged.


  ==> Post-Iterations <==

    Orbital Energies [Eh]
    ---------------------

    Doubly Occupied:                                                      

       1A    -20.629476     2A    -20.552804     3A    -11.396108  
       4A    -11.250979     5A     -1.475853     6A     -1.357486  
       7A     -1.032999     8A     -0.837930     9A     -0.703065  
      10A     -0.688465    11A     -0.657749    12A     -0.576538  
      13A     -0.569697    14A     -0.561403    15A     -0.475343  
      16A     -0.452434  

    Virtual:                                                              

      17A      0.024583    18A      0.032214    19A      0.045627  
      20A      0.046671    21A      0.055084    22A      0.055349  
      23A      0.056299    24A      0.064645    25A      0.085226  
      26A      0.098769    27A      0.104429    28A      0.112020  
      29A      0.117134    30A      0.117323    31A      0.117857  
      32A      0.140188    33A      0.140545    34A      0.141183  
      35A      0.146651    36A      0.151976    37A      0.156356  
      38A      0.164577    39A      0.171320    40A      0.176202  
      41A      0.196303    42A      0.205479    43A      0.209237  
      44A      0.214449    45A      0.226124    46A      0.233376  
      47A      0.234963    48A      0.243897    49A      0.260118  
      50A      0.264660    51A      0.270849    52A      0.276519  
      53A      0.285290    54A      0.290295    55A      0.295802  
      56A      0.319834    57A      0.322781    58A      0.332075  
      59A      0.336040    60A      0.347275    61A      0.369254  
      62A      0.370652    63A      0.378870    64A      0.394119  
      65A      0.399086    66A      0.401429    67A      0.409582  
      68A      0.426690    69A      0.430961    70A      0.437725  
      71A      0.438218    72A      0.442006    73A      0.460315  
      74A      0.475555    75A      0.490076    76A      0.492357  
      77A      0.497134    78A      0.516364    79A      0.524763  
      80A      0.537262    81A      0.541622    82A      0.543385  
      83A      0.553487    84A      0.559455    85A      0.569740  
      86A      0.583791    87A      0.586622    88A      0.602101  
      89A      0.616169    90A      0.618231    91A      0.636078  
      92A      0.636904    93A      0.640311    94A      0.649301  
      95A      0.666705    96A      0.674971    97A      0.684210  
      98A      0.689765    99A      0.697190   100A      0.700633  
     101A      0.703571   102A      0.727921   103A      0.733289  
     104A      0.742748   105A      0.753469   106A      0.760121  
     107A      0.786976   108A      0.798460   109A      0.815582  
     110A      0.819915   111A      0.848049   112A      0.853581  
     113A      0.876833   114A      0.888007   115A      0.896236  
     116A      0.912403   117A      0.947443   118A      0.949697  
     119A      0.954375   120A      0.957945   121A      0.975743  
     122A      0.983144   123A      1.037806   124A      1.041547  
     125A      1.045045   126A      1.088819   127A      1.101839  
     128A      1.106250   129A      1.118367   130A      1.157520  
     131A      1.162422   132A      1.172141   133A      1.176359  
     134A      1.190733   135A      1.236033   136A      1.260506  
     137A      1.270099   138A      1.272187   139A      1.319230  
     140A      1.329425   141A      1.358181   142A      1.383953  
     143A      1.390440   144A      1.396113   145A      1.412451  
     146A      1.434522   147A      1.458216   148A      1.462795  
     149A      1.467504   150A      1.467976   151A      1.469379  
     152A      1.537397   153A      1.546014   154A      1.569154  
     155A      1.635048   156A      1.649915   157A      1.683556  
     158A      1.715101   159A      1.717328   160A      1.755800  
     161A      1.772884   162A      1.799842   163A      1.848039  
     164A      1.865503   165A      1.882685   166A      1.883811  
     167A      1.936855   168A      1.966454   169A      1.979453  
     170A      2.026298   171A      2.037642   172A      2.070606  
     173A      2.122848   174A      2.172049   175A      2.193137  
     176A      2.244771   177A      2.250722   178A      2.253643  
     179A      2.264780   180A      2.272354   181A      2.273826  
     182A      2.302825   183A      2.312246   184A      2.336421  
     185A      2.338956   186A      2.361985   187A      2.376408  
     188A      2.379604   189A      2.430330   190A      2.438663  
     191A      2.467036   192A      2.505742   193A      2.536303  
     194A      2.585857   195A      2.623585   196A      2.652307  
     197A      2.664573   198A      2.698182   199A      2.754213  
     200A      2.783681   201A      2.786069   202A      2.824078  
     203A      2.833647   204A      2.886121   205A      2.915890  
     206A      2.974291   207A      3.001602   208A      3.016316  
     209A      3.042609   210A      3.178935   211A      3.182331  
     212A      3.278493   213A      3.310607   214A      3.346124  
     215A      3.356789   216A      3.431434   217A      3.486615  
     218A      3.662719   219A      3.666705   220A      3.690423  
     221A      3.736441   222A      3.740054   223A      3.759662  
     224A      3.790324   225A      3.805251   226A      3.900417  
     227A      4.026083   228A      4.050368   229A      4.142340  
     230A      4.153673   231A      4.309953   232A      4.504951  
     233A      4.616892   234A      4.724885   235A      4.925929  
     236A      4.969762   237A      4.978022   238A      5.001692  
     239A      5.016876   240A      5.033752   241A      5.052442  
     242A      5.222002   243A      5.244177   244A      5.615243  
     245A      5.661242   246A      5.791360   247A      5.869068  
     248A      6.052831   249A      6.228888   250A      6.520817  
     251A      6.790308   252A      7.093001   253A     18.346236  
     254A     18.940743   255A     33.525578   256A     33.563617  

    Final Occupation by Irrep:
              A 
    DOCC [    16 ]

  @DF-RHF Final Energy:  -227.84408589548559

   => Energetics <=

    Nuclear Repulsion Energy =            121.7484302109716197
    One-Electron Energy =                -552.7483714383041615
    Two-Electron Energy =                 203.1558553318469649
    Total Energy =                       -227.8440858954855912

Computation Completed


Properties will be evaluated at   0.000000,   0.000000,   0.000000 [a0]

Properties computed using the SCF density matrix

  Nuclear Dipole Moment: [e a0]
     X:   -98.5925      Y:    72.5259      Z:    62.6670

  Electronic Dipole Moment: [e a0]
     X:    99.4206      Y:   -72.8088      Z:   -62.7502

  Dipole Moment: [e a0]
     X:     0.8281      Y:    -0.2829      Z:    -0.0832     Total:     0.8790

  Dipole Moment: [D]
     X:     2.1048      Y:    -0.7191      Z:    -0.2116     Total:     2.2342


*** tstop() called on ds1 at Wed Sep  1 13:41:47 2021
Module time:
	user time   =      10.20 seconds =       0.17 minutes
	system time =       0.17 seconds =       0.00 minutes
	total time  =          3 seconds =       0.05 minutes
Total time:
	user time   =      24.65 seconds =       0.41 minutes
	system time =       0.60 seconds =       0.01 minutes
	total time  =          6 seconds =       0.10 minutes

  //>>>>>>>>>>>>>>>>>>>>>>>>>>>>>>>>>>>//
  //            Monomer B HF           //
  //<<<<<<<<<<<<<<<<<<<<<<<<<<<<<<<<<<<//


*** tstart() called on ds1
*** at Wed Sep  1 13:41:47 2021

   => Loading Basis Set <=

    Name: AUG-CC-PVDZ
    Role: ORBITAL
    Keyword: BASIS
    atoms 1-2, 9-10  entry O          line   254 file /theoryfs2/ds/csargent/miniconda3/envs/cle/share/psi4/basis/aug-cc-pvdz.gbs 
    atoms 3-6, 11-14 entry H          line    40 file /theoryfs2/ds/csargent/miniconda3/envs/cle/share/psi4/basis/aug-cc-pvdz.gbs 
    atoms 7-8, 15-16 entry C          line   182 file /theoryfs2/ds/csargent/miniconda3/envs/cle/share/psi4/basis/aug-cc-pvdz.gbs 


         ---------------------------------------------------------
                                   SCF
               by Justin Turney, Rob Parrish, Andy Simmonett
                          and Daniel G. A. Smith
                              RHF Reference
                        6 Threads,   6675 MiB Core
         ---------------------------------------------------------

  ==> Geometry <==

    Molecular point group: c1
    Full point group: C1

    Geometry (in Bohr), charge = 0, multiplicity = 1:

       Center              X                  Y                   Z               Mass       
    ------------   -----------------  -----------------  -----------------  -----------------
      Gh(O)          -5.531022370000     2.939402900000     1.977626240000    15.994914619570
      Gh(O)          -2.407088860000     0.908177340000     0.049059090000    15.994914619570
      Gh(H)          -0.503048870000     1.375792050000     4.638809080000     1.007825032230
      Gh(H)           0.000000000000     4.251042850000     3.090722380000     1.007825032230
      Gh(H)          -2.389482150000     4.019167790000     5.401950410000     1.007825032230
      Gh(H)          -3.747714110000     0.471479300000    -1.215575120000     1.007825032230
      Gh(C)          -1.418597820000     2.985005000000     3.844051900000    12.000000000000
      Gh(C)          -3.322637810000     2.286288140000     1.912214130000    12.000000000000
         O            7.045199480000    16.538102540000   -30.728430730000    15.994914619570
         O           10.169132990000    18.569328100000   -32.656997890000    15.994914619570
         H           12.073172980000    18.101713390000   -28.067247890000     1.007825032230
         H           12.576221850000    15.226462590000   -29.615334590000     1.007825032230
         H           10.186739700000    15.458337650000   -27.304106560000     1.007825032230
         H            8.828507740000    19.006026140000   -33.921632090000     1.007825032230
         C           11.157624030000    16.492500440000   -28.862005080000    12.000000000000
         C            9.253584040000    17.191217300000   -30.793842840000    12.000000000000

  Running in c1 symmetry.

  Rotational constants: A =      0.04051  B =      0.00075  C =      0.00074 [cm^-1]
  Rotational constants: A =   1214.42666  B =     22.36283  C =     22.10516 [MHz]
  Nuclear repulsion =  121.748430176936040

  Charge       = 0
  Multiplicity = 1
  Electrons    = 32
  Nalpha       = 16
  Nbeta        = 16

  ==> Algorithm <==

  SCF Algorithm Type is DF.
  DIIS enabled.
  MOM disabled.
  Fractional occupation disabled.
  Guess Type is SAD.
  Energy threshold   = 1.00e-10
  Density threshold  = 1.00e-10
  Integral threshold = 1.00e-12

  ==> Primary Basis <==

  Basis Set: AUG-CC-PVDZ
    Blend: AUG-CC-PVDZ
    Number of shells: 112
    Number of basis functions: 256
    Number of Cartesian functions: 272
    Spherical Harmonics?: true
    Max angular momentum: 2

   => Loading Basis Set <=

    Name: (AUG-CC-PVDZ AUX)
    Role: JKFIT
    Keyword: DF_BASIS_SCF
    atoms 1-2, 9-10  entry O          line   270 file /theoryfs2/ds/csargent/miniconda3/envs/cle/share/psi4/basis/aug-cc-pvdz-jkfit.gbs 
    atoms 3-6, 11-14 entry H          line    70 file /theoryfs2/ds/csargent/miniconda3/envs/cle/share/psi4/basis/aug-cc-pvdz-jkfit.gbs 
    atoms 7-8, 15-16 entry C          line   154 file /theoryfs2/ds/csargent/miniconda3/envs/cle/share/psi4/basis/aug-cc-pvdz-jkfit.gbs 

  ==> Integral Setup <==

  ==> DiskDFJK: Density-Fitted J/K Matrices <==

    J tasked:                  Yes
    K tasked:                  Yes
    wK tasked:                  No
    OpenMP threads:              6
    Integrals threads:           6
    Memory [MiB]:             5006
    Algorithm:                Core
    Integral Cache:           LOAD
    Schwarz Cutoff:          1E-12
    Fitting Condition:       1E-10

   => Auxiliary Basis Set <=

  Basis Set: (AUG-CC-PVDZ AUX)
    Blend: AUG-CC-PVDZ-JKFIT
    Number of shells: 320
    Number of basis functions: 944
    Number of Cartesian functions: 1088
    Spherical Harmonics?: true
    Max angular momentum: 3

  Minimum eigenvalue in the overlap matrix is 1.0277545990E-04.
  Reciprocal condition number of the overlap matrix is 9.6539161312E-06.
    Using symmetric orthogonalization.

  ==> Pre-Iterations <==

  SCF Guess: Superposition of Atomic Densities via on-the-fly atomic UHF (no occupation information).

   -------------------------
    Irrep   Nso     Nmo    
   -------------------------
     A        256     256 
   -------------------------
    Total     256     256
   -------------------------

  ==> Iterations <==

                           Total Energy        Delta E     RMS |[F,P]|

   @DF-RHF iter SAD:  -226.98992942658239   -2.26990e+02   0.00000e+00 
   @DF-RHF iter   1:  -227.68091167983164   -6.90982e-01   2.28211e-03 DIIS
   @DF-RHF iter   2:  -227.80091445295551   -1.20003e-01   1.32478e-03 DIIS
   @DF-RHF iter   3:  -227.84131987229202   -4.04054e-02   2.33581e-04 DIIS
   @DF-RHF iter   4:  -227.84355633582402   -2.23646e-03   1.03339e-04 DIIS
   @DF-RHF iter   5:  -227.84403723682567   -4.80901e-04   2.42136e-05 DIIS
   @DF-RHF iter   6:  -227.84407440482281   -3.71680e-05   1.17797e-05 DIIS
   @DF-RHF iter   7:  -227.84408419294863   -9.78813e-06   3.84272e-06 DIIS
   @DF-RHF iter   8:  -227.84408577453522   -1.58159e-06   1.01577e-06 DIIS
   @DF-RHF iter   9:  -227.84408589118547   -1.16650e-07   2.12953e-07 DIIS
   @DF-RHF iter  10:  -227.84408589500623   -3.82076e-09   5.61608e-08 DIIS
   @DF-RHF iter  11:  -227.84408589521007   -2.03841e-10   1.80147e-08 DIIS
   @DF-RHF iter  12:  -227.84408589523153   -2.14584e-11   4.26466e-09 DIIS
   @DF-RHF iter  13:  -227.84408589523360   -2.07478e-12   8.93569e-10 DIIS
   @DF-RHF iter  14:  -227.84408589523363   -2.84217e-14   2.86710e-10 DIIS
   @DF-RHF iter  15:  -227.84408589523341    2.27374e-13   1.08058e-10 DIIS
   @DF-RHF iter  16:  -227.84408589523323    1.70530e-13   2.86098e-11 DIIS
  Energy and wave function converged.


  ==> Post-Iterations <==

    Orbital Energies [Eh]
    ---------------------

    Doubly Occupied:                                                      

       1A    -20.629476     2A    -20.552804     3A    -11.396108  
       4A    -11.250979     5A     -1.475853     6A     -1.357486  
       7A     -1.032999     8A     -0.837930     9A     -0.703065  
      10A     -0.688465    11A     -0.657749    12A     -0.576538  
      13A     -0.569697    14A     -0.561403    15A     -0.475343  
      16A     -0.452434  

    Virtual:                                                              

      17A      0.025038    18A      0.032214    19A      0.045627  
      20A      0.047178    21A      0.055084    22A      0.055768  
      23A      0.056745    24A      0.064644    25A      0.085726  
      26A      0.098769    27A      0.104876    28A      0.112476  
      29A      0.117323    30A      0.117575    31A      0.117857  
      32A      0.140545    33A      0.140674    34A      0.141632  
      35A      0.147093    36A      0.151976    37A      0.156356  
      38A      0.164577    39A      0.171320    40A      0.176666  
      41A      0.196303    42A      0.205937    43A      0.209237  
      44A      0.214910    45A      0.226603    46A      0.233376  
      47A      0.234963    48A      0.244367    49A      0.260591  
      50A      0.265115    51A      0.270849    52A      0.277001  
      53A      0.285745    54A      0.290295    55A      0.295802  
      56A      0.319834    57A      0.322781    58A      0.332534  
      59A      0.336478    60A      0.347275    61A      0.369709  
      62A      0.370652    63A      0.378870    64A      0.394119  
      65A      0.399536    66A      0.401429    67A      0.410025  
      68A      0.426690    69A      0.431421    70A      0.438170  
      71A      0.438218    72A      0.442006    73A      0.460792  
      74A      0.475555    75A      0.490539    76A      0.492357  
      77A      0.497600    78A      0.516836    79A      0.524763  
      80A      0.537262    81A      0.542096    82A      0.543840  
      83A      0.553487    84A      0.559915    85A      0.569740  
      86A      0.583791    87A      0.587065    88A      0.602101  
      89A      0.616631    90A      0.618231    91A      0.636537  
      92A      0.637366    93A      0.640311    94A      0.649301  
      95A      0.666705    96A      0.675429    97A      0.684210  
      98A      0.690220    99A      0.697190   100A      0.701090  
     101A      0.703571   102A      0.728367   103A      0.733289  
     104A      0.742748   105A      0.753933   106A      0.760573  
     107A      0.787423   108A      0.798460   109A      0.816027  
     110A      0.820364   111A      0.848496   112A      0.853581  
     113A      0.876833   114A      0.888465   115A      0.896695  
     116A      0.912403   117A      0.947901   118A      0.949697  
     119A      0.954375   120A      0.958402   121A      0.976202  
     122A      0.983144   123A      1.038272   124A      1.041547  
     125A      1.045509   126A      1.088819   127A      1.101839  
     128A      1.106714   129A      1.118367   130A      1.157520  
     131A      1.162889   132A      1.172141   133A      1.176359  
     134A      1.191199   135A      1.236033   136A      1.260980  
     137A      1.270573   138A      1.272187   139A      1.319230  
     140A      1.329893   141A      1.358181   142A      1.384427  
     143A      1.390440   144A      1.396582   145A      1.412451  
     146A      1.434995   147A      1.458687   148A      1.462795  
     149A      1.467974   150A      1.467976   151A      1.469849  
     152A      1.537866   153A      1.546014   154A      1.569623  
     155A      1.635048   156A      1.649915   157A      1.684023  
     158A      1.715101   159A      1.717797   160A      1.755800  
     161A      1.772884   162A      1.800313   163A      1.848039  
     164A      1.865503   165A      1.883127   166A      1.883811  
     167A      1.937301   168A      1.966454   169A      1.979453  
     170A      2.026298   171A      2.037642   172A      2.071061  
     173A      2.122848   174A      2.172049   175A      2.193137  
     176A      2.244771   177A      2.251176   178A      2.253643  
     179A      2.265221   180A      2.272354   181A      2.274295  
     182A      2.303271   183A      2.312246   184A      2.336872  
     185A      2.339395   186A      2.362434   187A      2.376870  
     188A      2.379604   189A      2.430330   190A      2.438663  
     191A      2.467505   192A      2.506215   193A      2.536303  
     194A      2.586322   195A      2.623585   196A      2.652307  
     197A      2.665032   198A      2.698630   199A      2.754661  
     200A      2.783681   201A      2.786521   202A      2.824532  
     203A      2.833647   204A      2.886121   205A      2.916350  
     206A      2.974291   207A      3.001602   208A      3.016316  
     209A      3.043065   210A      3.178935   211A      3.182785  
     212A      3.278941   213A      3.311063   214A      3.346124  
     215A      3.357242   216A      3.431893   217A      3.487065  
     218A      3.663178   219A      3.666705   220A      3.690423  
     221A      3.736441   222A      3.740522   223A      3.759662  
     224A      3.790324   225A      3.805251   226A      3.900417  
     227A      4.026552   228A      4.050368   229A      4.142340  
     230A      4.154145   231A      4.309953   232A      4.505424  
     233A      4.617360   234A      4.725342   235A      4.926403  
     236A      4.970235   237A      4.978490   238A      5.002168  
     239A      5.017344   240A      5.034218   241A      5.052895  
     242A      5.222464   243A      5.244631   244A      5.615709  
     245A      5.661711   246A      5.791832   247A      5.869541  
     248A      6.053303   249A      6.229364   250A      6.521284  
     251A      6.790778   252A      7.093473   253A     18.346690  
     254A     18.941200   255A     33.526055   256A     33.564084  

    Final Occupation by Irrep:
              A 
    DOCC [    16 ]

  @DF-RHF Final Energy:  -227.84408589523323

   => Energetics <=

    Nuclear Repulsion Energy =            121.7484301769360400
    One-Electron Energy =                -552.7483713686090141
    Two-Electron Energy =                 203.1558552964397393
    Total Energy =                       -227.8440858952332349

Computation Completed


Properties will be evaluated at   0.000000,   0.000000,   0.000000 [a0]

Properties computed using the SCF density matrix

  Nuclear Dipole Moment: [e a0]
     X:   303.8466      Y:   550.7543      Z:  -983.9268

  Electronic Dipole Moment: [e a0]
     X:  -303.0185      Y:  -550.4714      Z:   983.8436

  Dipole Moment: [e a0]
     X:     0.8281      Y:     0.2829      Z:    -0.0832     Total:     0.8790

  Dipole Moment: [D]
     X:     2.1048      Y:     0.7191      Z:    -0.2116     Total:     2.2342


*** tstop() called on ds1 at Wed Sep  1 13:41:49 2021
Module time:
	user time   =      10.29 seconds =       0.17 minutes
	system time =       0.17 seconds =       0.00 minutes
	total time  =          2 seconds =       0.03 minutes
Total time:
	user time   =      35.16 seconds =       0.59 minutes
	system time =       0.77 seconds =       0.01 minutes
	total time  =          8 seconds =       0.13 minutes
  Constructing Basis Sets for SAPT...

   => Loading Basis Set <=

    Name: (AUG-CC-PVDZ AUX)
    Role: RIFIT
    Keyword: DF_BASIS_SAPT
    atoms 1-2, 9-10  entry O          line   204 file /theoryfs2/ds/csargent/miniconda3/envs/cle/share/psi4/basis/aug-cc-pvdz-ri.gbs 
    atoms 3-6, 11-14 entry H          line    30 file /theoryfs2/ds/csargent/miniconda3/envs/cle/share/psi4/basis/aug-cc-pvdz-ri.gbs 
    atoms 7-8, 15-16 entry C          line   112 file /theoryfs2/ds/csargent/miniconda3/envs/cle/share/psi4/basis/aug-cc-pvdz-ri.gbs 


  //>>>>>>>>>>>>>>>>>>>>>>>>>>>>>>>>>>>//
  //               SAPT0               //
  //<<<<<<<<<<<<<<<<<<<<<<<<<<<<<<<<<<<//


*** tstart() called on ds1
*** at Wed Sep  1 13:41:49 2021

        SAPT0  
    Ed Hohenstein
     6 June 2009

      Orbital Information
  --------------------------
    NSO        =       256
    NMO        =       256
    NRI        =       760
    NOCC A     =        16
    NOCC B     =        16
    FOCC A     =         4
    FOCC B     =         4
    NVIR A     =       240
    NVIR B     =       240

    Elst10,r            =     0.000005521074 [Eh]
    Exch10              =    -0.000000000000 [Eh]
    Exch10 (S^2)        =    -0.000000000000 [Eh]

    Iter     Energy [mEh]          dE [mEh]         Residual      Time [s]
       1      -0.00000780       0.000007795       0.021050984             0
       2      -0.00000842       0.000000628       0.009987878             0
       3      -0.00000912       0.000000693       0.003253022             0
       4      -0.00000923       0.000000111       0.000791326             0
       5      -0.00000919      -0.000000038       0.000312775             0
       6      -0.00000919      -0.000000003       0.000121406             0
       7      -0.00000919       0.000000003       0.000046466             0
       8      -0.00000919       0.000000001       0.000011837             0
       9      -0.00000919      -0.000000000       0.000003352             1
      10      -0.00000919      -0.000000000       0.000000933             1

    CHF Iterations converged


    Iter     Energy [mEh]          dE [mEh]         Residual      Time [s]
       1      -0.00000347       0.000003468       0.012169785             0
       2      -0.00000397       0.000000506       0.005692817             0
       3      -0.00000417       0.000000201       0.001766726             0
       4      -0.00000420       0.000000029       0.000493463             0
       5      -0.00000419      -0.000000012       0.000236043             0
       6      -0.00000419      -0.000000003       0.000080730             0
       7      -0.00000419       0.000000001       0.000030678             0
       8      -0.00000419       0.000000000       0.000007502             0
       9      -0.00000419      -0.000000000       0.000002147             0
      10      -0.00000419      -0.000000000       0.000000608             0

    CHF Iterations converged

    Ind20,r (A<-B)      =    -0.000000009189 [Eh]
    Ind20,r (B<-A)      =    -0.000000004189 [Eh]
    Ind20,r             =    -0.000000013379 [Eh]
    Exch-Ind20,r (A<-B) =     0.000000000000 [Eh]
    Exch-Ind20,r (B<-A) =     0.000000000000 [Eh]
    Exch-Ind20,r        =     0.000000000000 [Eh]
    Disp20              =    -0.000000187838 [Eh]
    Disp20 (SS)         =    -0.000000093919 [Eh]
    Disp20 (OS)         =    -0.000000093919 [Eh]
    Exch-Disp20         =     0.000000000000 [Eh]
    Exch-Disp20 (SS)    =     0.000000000000 [Eh]
    Exch-Disp20 (OS)    =     0.000000000000 [Eh]

    SAPT Results 
  --------------------------------------------------------------------------------------------------------
    Electrostatics                  0.00552107 [mEh]       0.00346453 [kcal/mol]       0.01449558 [kJ/mol]
      Elst10,r                      0.00552107 [mEh]       0.00346453 [kcal/mol]       0.01449558 [kJ/mol]

    Exchange                       -0.00000000 [mEh]      -0.00000000 [kcal/mol]      -0.00000000 [kJ/mol]
      Exch10                       -0.00000000 [mEh]      -0.00000000 [kcal/mol]      -0.00000000 [kJ/mol]
      Exch10(S^2)                  -0.00000000 [mEh]      -0.00000000 [kcal/mol]      -0.00000000 [kJ/mol]

    Induction                      -0.00003303 [mEh]      -0.00002072 [kcal/mol]      -0.00008671 [kJ/mol]
      Ind20,r                      -0.00001338 [mEh]      -0.00000840 [kcal/mol]      -0.00003513 [kJ/mol]
      Exch-Ind20,r                  0.00000000 [mEh]       0.00000000 [kcal/mol]       0.00000000 [kJ/mol]
      delta HF,r (2)               -0.00001965 [mEh]      -0.00001233 [kcal/mol]      -0.00005158 [kJ/mol]

    Dispersion                     -0.00018784 [mEh]      -0.00011787 [kcal/mol]      -0.00049317 [kJ/mol]
      Disp20                       -0.00018784 [mEh]      -0.00011787 [kcal/mol]      -0.00049317 [kJ/mol]
      Exch-Disp20                   0.00000000 [mEh]       0.00000000 [kcal/mol]       0.00000000 [kJ/mol]
      Disp20 (SS)                  -0.00009392 [mEh]      -0.00005893 [kcal/mol]      -0.00024658 [kJ/mol]
      Disp20 (OS)                  -0.00009392 [mEh]      -0.00005893 [kcal/mol]      -0.00024658 [kJ/mol]
      Exch-Disp20 (SS)              0.00000000 [mEh]       0.00000000 [kcal/mol]       0.00000000 [kJ/mol]
      Exch-Disp20 (OS)              0.00000000 [mEh]       0.00000000 [kcal/mol]       0.00000000 [kJ/mol]

  Total HF                          0.00548805 [mEh]       0.00344380 [kcal/mol]       0.01440887 [kJ/mol]
  Total SAPT0                       0.00530021 [mEh]       0.00332593 [kcal/mol]       0.01391570 [kJ/mol]

  Special recipe for scaled SAPT0 (see Manual):
    Electrostatics sSAPT0           0.00552107 [mEh]       0.00346453 [kcal/mol]       0.01449558 [kJ/mol]
    Exchange sSAPT0                -0.00000000 [mEh]      -0.00000000 [kcal/mol]      -0.00000000 [kJ/mol]
    Induction sSAPT0               -0.00003303 [mEh]      -0.00002072 [kcal/mol]      -0.00008671 [kJ/mol]
    Dispersion sSAPT0              -0.00018784 [mEh]      -0.00011787 [kcal/mol]      -0.00049317 [kJ/mol]
  Total sSAPT0                      0.00530021 [mEh]       0.00332593 [kcal/mol]       0.01391570 [kJ/mol]
  --------------------------------------------------------------------------------------------------------

*** tstop() called on ds1 at Wed Sep  1 13:41:55 2021
Module time:
	user time   =      27.23 seconds =       0.45 minutes
	system time =       2.34 seconds =       0.04 minutes
	total time  =          6 seconds =       0.10 minutes
Total time:
	user time   =      63.18 seconds =       1.05 minutes
	system time =       3.15 seconds =       0.05 minutes
	total time  =         14 seconds =       0.23 minutes


Warning! sapt0 does not have an associated derived wavefunction.The returned wavefunction is the dimer SCF wavefunction.


    Psi4 stopped on: Wednesday, 01 September 2021 01:41PM
    Psi4 wall time for execution: 0:00:13.87

*** Psi4 exiting successfully. Buy a developer a beer!
