
    -----------------------------------------------------------------------
          Psi4: An Open-Source Ab Initio Electronic Structure Package
                               Psi4 1.4rc3 

                         Git: Rev {HEAD} 080dba6 


    D. G. A. Smith, L. A. Burns, A. C. Simmonett, R. M. Parrish,
    M. C. Schieber, R. Galvelis, P. Kraus, H. Kruse, R. Di Remigio,
    A. Alenaizan, A. M. James, S. Lehtola, J. P. Misiewicz, M. Scheurer,
    R. A. Shaw, J. B. Schriber, Y. Xie, Z. L. Glick, D. A. Sirianni,
    J. S. O'Brien, J. M. Waldrop, A. Kumar, E. G. Hohenstein,
    B. P. Pritchard, B. R. Brooks, H. F. Schaefer III, A. Yu. Sokolov,
    K. Patkowski, A. E. DePrince III, U. Bozkaya, R. A. King,
    F. A. Evangelista, J. M. Turney, T. D. Crawford, C. D. Sherrill,
    J. Chem. Phys. 152(18) 184108 (2020). https://doi.org/10.1063/5.0006002

                            Additional Code Authors
    E. T. Seidl, C. L. Janssen, E. F. Valeev, M. L. Leininger,
    J. F. Gonthier, R. M. Richard, H. R. McAlexander, M. Saitow, X. Wang,
    P. Verma, and M. H. Lechner

             Previous Authors, Complete List of Code Contributors,
                       and Citations for Specific Modules
    https://github.com/psi4/psi4/blob/master/codemeta.json
    https://github.com/psi4/psi4/graphs/contributors
    http://psicode.org/psi4manual/master/introduction.html#citing-psifour

    -----------------------------------------------------------------------


    Psi4 started on: Wednesday, 01 September 2021 02:28PM

    Process ID: 21899
    Host:       ds1
    PSIDATADIR: /theoryfs2/ds/csargent/miniconda3/envs/cle/share/psi4
    Memory:     500.0 MiB
    Threads:    6
    
  ==> Input File <==

--------------------------------------------------------------------------
# PSI4 file produced by CrystaLattE

# Generated from:               acetic_acid.xyz
# Psithon input for N-mer:      2mer-0+62
# Number of atoms per monomer:  [8, 8]
# Number of replicas:           2
# COM priority:                 1.145619808861e-04
# Minimum COM separations:      10.896 
# Separation priority:          2.216253441126e-04
# Minimum monomer separations:  8.744 
# Cutoff priority:              1.341196970909e-05
# Nuclear repulsion energy:     293.02008576547803

memory 7 GB

molecule Dimer_0_62 {
  O           -5.53102237       2.93940290       1.97762624 
  O           -2.40708886       0.90817734       0.04905909 
  H           -0.50304887       1.37579205       4.63880908 
  H            0.00000000       4.25104285       3.09072238 
  H           -2.38948215       4.01916779       5.40195041 
  H           -3.74771411       0.47147930      -1.21557512 
  C           -1.41859782       2.98500500       3.84405190 
  C           -3.32263781       2.28628814       1.91221413 
--
  O           -5.38513820     -16.38351916      -3.47338325 
  O           -8.50907170     -18.41474473      -5.40195041 
  H          -10.41311169     -17.94713001      -0.81220041 
  H          -10.91616057     -15.07187921      -2.36028711 
  H           -8.52667842     -15.30375427      -0.04905909 
  H           -7.16844646     -18.85144277      -6.66658461 
  C           -9.49756274     -16.33791706      -1.60695760 
  C           -7.59352275     -17.03663393      -3.53879536 
units = au
no_com
no_reorient
}

set {
  e_convergence 10
  d_convergence 10
  scf_type df
  mp2_type df
  cc_type df
  freeze_core true
}

energy('sapt0/aug-cc-pvdz')

--------------------------------------------------------------------------

  Memory set to   6.519 GiB by Python driver.

Scratch directory: /scratch/csargent/psi4.17562.33784/

Scratch directory: /scratch/csargent/psi4.17562.33784/

  //>>>>>>>>>>>>>>>>>>>>>>>>>>>>>>>>>>>//
  //              Dimer HF             //
  //<<<<<<<<<<<<<<<<<<<<<<<<<<<<<<<<<<<//


*** tstart() called on ds1
*** at Wed Sep  1 14:28:49 2021

   => Loading Basis Set <=

    Name: AUG-CC-PVDZ
    Role: ORBITAL
    Keyword: BASIS
    atoms 1-2, 9-10  entry O          line   254 file /theoryfs2/ds/csargent/miniconda3/envs/cle/share/psi4/basis/aug-cc-pvdz.gbs 
    atoms 3-6, 11-14 entry H          line    40 file /theoryfs2/ds/csargent/miniconda3/envs/cle/share/psi4/basis/aug-cc-pvdz.gbs 
    atoms 7-8, 15-16 entry C          line   182 file /theoryfs2/ds/csargent/miniconda3/envs/cle/share/psi4/basis/aug-cc-pvdz.gbs 


         ---------------------------------------------------------
                                   SCF
               by Justin Turney, Rob Parrish, Andy Simmonett
                          and Daniel G. A. Smith
                              RHF Reference
                        6 Threads,   6675 MiB Core
         ---------------------------------------------------------

  ==> Geometry <==

    Molecular point group: c1
    Full point group: C1

    Geometry (in Bohr), charge = 0, multiplicity = 1:

       Center              X                  Y                   Z               Mass       
    ------------   -----------------  -----------------  -----------------  -----------------
         O           -5.531022370000     2.939402900000     1.977626240000    15.994914619570
         O           -2.407088860000     0.908177340000     0.049059090000    15.994914619570
         H           -0.503048870000     1.375792050000     4.638809080000     1.007825032230
         H            0.000000000000     4.251042850000     3.090722380000     1.007825032230
         H           -2.389482150000     4.019167790000     5.401950410000     1.007825032230
         H           -3.747714110000     0.471479300000    -1.215575120000     1.007825032230
         C           -1.418597820000     2.985005000000     3.844051900000    12.000000000000
         C           -3.322637810000     2.286288140000     1.912214130000    12.000000000000
         O           -5.385138200000   -16.383519160000    -3.473383250000    15.994914619570
         O           -8.509071700000   -18.414744730000    -5.401950410000    15.994914619570
         H          -10.413111690000   -17.947130010000    -0.812200410000     1.007825032230
         H          -10.916160570000   -15.071879210000    -2.360287110000     1.007825032230
         H           -8.526678420000   -15.303754270000    -0.049059090000     1.007825032230
         H           -7.168446460000   -18.851442770000    -6.666584610000     1.007825032230
         C           -9.497562740000   -16.337917060000    -1.606957600000    12.000000000000
         C           -7.593522750000   -17.036633930000    -3.538795360000    12.000000000000

  Running in c1 symmetry.

  Rotational constants: A =      0.03923  B =      0.00270  C =      0.00256 [cm^-1]
  Rotational constants: A =   1175.98269  B =     80.96639  C =     76.83630 [MHz]
  Nuclear repulsion =  293.020085858572315

  Charge       = 0
  Multiplicity = 1
  Electrons    = 64
  Nalpha       = 32
  Nbeta        = 32

  ==> Algorithm <==

  SCF Algorithm Type is DF.
  DIIS enabled.
  MOM disabled.
  Fractional occupation disabled.
  Guess Type is SAD.
  Energy threshold   = 1.00e-10
  Density threshold  = 1.00e-10
  Integral threshold = 1.00e-12

  ==> Primary Basis <==

  Basis Set: AUG-CC-PVDZ
    Blend: AUG-CC-PVDZ
    Number of shells: 112
    Number of basis functions: 256
    Number of Cartesian functions: 272
    Spherical Harmonics?: true
    Max angular momentum: 2

   => Loading Basis Set <=

    Name: (AUG-CC-PVDZ AUX)
    Role: JKFIT
    Keyword: DF_BASIS_SCF
    atoms 1-2, 9-10  entry O          line   270 file /theoryfs2/ds/csargent/miniconda3/envs/cle/share/psi4/basis/aug-cc-pvdz-jkfit.gbs 
    atoms 3-6, 11-14 entry H          line    70 file /theoryfs2/ds/csargent/miniconda3/envs/cle/share/psi4/basis/aug-cc-pvdz-jkfit.gbs 
    atoms 7-8, 15-16 entry C          line   154 file /theoryfs2/ds/csargent/miniconda3/envs/cle/share/psi4/basis/aug-cc-pvdz-jkfit.gbs 

  ==> Integral Setup <==

  ==> DiskDFJK: Density-Fitted J/K Matrices <==

    J tasked:                  Yes
    K tasked:                  Yes
    wK tasked:                  No
    OpenMP threads:              6
    Integrals threads:           6
    Memory [MiB]:             5006
    Algorithm:                Core
    Integral Cache:           SAVE
    Schwarz Cutoff:          1E-12
    Fitting Condition:       1E-10

   => Auxiliary Basis Set <=

  Basis Set: (AUG-CC-PVDZ AUX)
    Blend: AUG-CC-PVDZ-JKFIT
    Number of shells: 320
    Number of basis functions: 944
    Number of Cartesian functions: 1088
    Spherical Harmonics?: true
    Max angular momentum: 3

  Minimum eigenvalue in the overlap matrix is 1.0248824119E-04.
  Reciprocal condition number of the overlap matrix is 9.6249029361E-06.
    Using symmetric orthogonalization.

  ==> Pre-Iterations <==

  SCF Guess: Superposition of Atomic Densities via on-the-fly atomic UHF (no occupation information).

   -------------------------
    Irrep   Nso     Nmo    
   -------------------------
     A        256     256 
   -------------------------
    Total     256     256
   -------------------------

  ==> Iterations <==

                           Total Energy        Delta E     RMS |[F,P]|

   @DF-RHF iter SAD:  -453.97985899288119   -4.53980e+02   0.00000e+00 
   @DF-RHF iter   1:  -455.36210302722833   -1.38224e+00   3.22691e-03 DIIS
   @DF-RHF iter   2:  -455.60209847330628   -2.39995e-01   1.87188e-03 DIIS
   @DF-RHF iter   3:  -455.68276814622601   -8.06697e-02   3.29648e-04 DIIS
   @DF-RHF iter   4:  -455.68723081065195   -4.46266e-03   1.45835e-04 DIIS
   @DF-RHF iter   5:  -455.68818885211255   -9.58041e-04   3.41699e-05 DIIS
   @DF-RHF iter   6:  -455.68826291595491   -7.40638e-05   1.66400e-05 DIIS
   @DF-RHF iter   7:  -455.68828241413792   -1.94982e-05   5.42232e-06 DIIS
   @DF-RHF iter   8:  -455.68828556920369   -3.15507e-06   1.43483e-06 DIIS
   @DF-RHF iter   9:  -455.68828580202120   -2.32818e-07   3.01019e-07 DIIS
   @DF-RHF iter  10:  -455.68828580966107   -7.63987e-09   7.94497e-08 DIIS
   @DF-RHF iter  11:  -455.68828581006801   -4.06942e-10   2.57163e-08 DIIS
   @DF-RHF iter  12:  -455.68828581011206   -4.40536e-11   6.75734e-09 DIIS
   @DF-RHF iter  13:  -455.68828581011530   -3.24007e-12   2.94042e-09 DIIS
   @DF-RHF iter  14:  -455.68828581011525    5.68434e-14   1.04278e-09 DIIS
   @DF-RHF iter  15:  -455.68828581011553   -2.84217e-13   2.09850e-10 DIIS
   @DF-RHF iter  16:  -455.68828581011508    4.54747e-13   9.93793e-11 DIIS
  Energy and wave function converged.


  ==> Post-Iterations <==

    Orbital Energies [Eh]
    ---------------------

    Doubly Occupied:                                                      

       1A    -20.630019     2A    -20.628150     3A    -20.553427  
       4A    -20.551744     5A    -11.396696     6A    -11.395018  
       7A    -11.251399     8A    -11.249884     9A     -1.476419  
      10A     -1.474612    11A     -1.358102    12A     -1.356374  
      13A     -1.033465    14A     -1.031880    15A     -0.838441  
      16A     -0.836663    17A     -0.703675    18A     -0.701943  
      19A     -0.688982    20A     -0.687302    21A     -0.658273  
      22A     -0.656553    23A     -0.577081    24A     -0.575370  
      25A     -0.570149    26A     -0.568507    27A     -0.561846  
      28A     -0.560309    29A     -0.475982    30A     -0.474259  
      31A     -0.453048    32A     -0.451379  

    Virtual:                                                              

      33A      0.030043    34A      0.034270    35A      0.044009  
      36A      0.047585    37A      0.054803    38A      0.056355  
      39A      0.065124    40A      0.067152    41A      0.097084  
      42A      0.100897    43A      0.115626    44A      0.116678  
      45A      0.119043    46A      0.120443    47A      0.139164  
      48A      0.142367    49A      0.151815    50A      0.153403  
      51A      0.157079    52A      0.157994    53A      0.164286  
      54A      0.167543    55A      0.170987    56A      0.173089  
      57A      0.195878    58A      0.197492    59A      0.208401  
      60A      0.211935    61A      0.232766    62A      0.233999  
      63A      0.236508    64A      0.237276    65A      0.270364  
      66A      0.272422    67A      0.289516    68A      0.291698  
      69A      0.295410    70A      0.297094    71A      0.319117  
      72A      0.320915    73A      0.323011    74A      0.324999  
      75A      0.346802    76A      0.348500    77A      0.370410  
      78A      0.371814    79A      0.378413    80A      0.380344  
      81A      0.393531    82A      0.395540    83A      0.401731  
      84A      0.402651    85A      0.426097    86A      0.429180  
      87A      0.437591    88A      0.440902    89A      0.441685  
      90A      0.443265    91A      0.475128    92A      0.476958  
      93A      0.491971    94A      0.493607    95A      0.524391  
      96A      0.525998    97A      0.536743    98A      0.538307  
      99A      0.552566   100A      0.555857   101A      0.569128  
     102A      0.572167   103A      0.583375   104A      0.585185  
     105A      0.601726   106A      0.604065   107A      0.617758  
     108A      0.620185   109A      0.639894   110A      0.641617  
     111A      0.648856   112A      0.650437   113A      0.666425  
     114A      0.668075   115A      0.683715   116A      0.685437  
     117A      0.696702   118A      0.698296   119A      0.703227  
     120A      0.704698   121A      0.732868   122A      0.734514  
     123A      0.742227   124A      0.743928   125A      0.797913  
     126A      0.800188   127A      0.853128   128A      0.854928  
     129A      0.876434   130A      0.878083   131A      0.911864  
     132A      0.913593   133A      0.949198   134A      0.950879  
     135A      0.953863   136A      0.956163   137A      0.982676  
     138A      0.984394   139A      1.040834   140A      1.043233  
     141A      1.088420   142A      1.089952   143A      1.101473  
     144A      1.103283   145A      1.118004   146A      1.119627  
     147A      1.156956   148A      1.158805   149A      1.171710  
     150A      1.173448   151A      1.175837   152A      1.177596  
     153A      1.235711   154A      1.237421   155A      1.271614  
     156A      1.273282   157A      1.318537   158A      1.320516  
     159A      1.357685   160A      1.359366   161A      1.390104  
     162A      1.391877   163A      1.411674   164A      1.414337  
     165A      1.461980   166A      1.464381   167A      1.467553  
     168A      1.469309   169A      1.545595   170A      1.547150  
     171A      1.634629   172A      1.636333   173A      1.649400  
     174A      1.651358   175A      1.714925   176A      1.716616  
     177A      1.755297   178A      1.757014   179A      1.772613  
     180A      1.774113   181A      1.847486   182A      1.849111  
     183A      1.865050   184A      1.866730   185A      1.883433  
     186A      1.884931   187A      1.965994   188A      1.967724  
     189A      1.978949   190A      1.980800   191A      2.025834  
     192A      2.027598   193A      2.037321   194A      2.038846  
     195A      2.122417   196A      2.124061   197A      2.171630  
     198A      2.173257   199A      2.192792   200A      2.194327  
     201A      2.244342   202A      2.245905   203A      2.253159  
     204A      2.254869   205A      2.271823   206A      2.273458  
     207A      2.311760   208A      2.313600   209A      2.379150  
     210A      2.380765   211A      2.429883   212A      2.431585  
     213A      2.438230   214A      2.439872   215A      2.535831  
     216A      2.537468   217A      2.623211   218A      2.624800  
     219A      2.651868   220A      2.653402   221A      2.783274  
     222A      2.784960   223A      2.833168   224A      2.834886  
     225A      2.885665   226A      2.887321   227A      2.973725  
     228A      2.975788   229A      3.001123   230A      3.003204  
     231A      3.015827   232A      3.017661   233A      3.178568  
     234A      3.180199   235A      3.345802   236A      3.347327  
     237A      3.666198   238A      3.668019   239A      3.689872  
     240A      3.691733   241A      3.735879   242A      3.737673  
     243A      3.759018   244A      3.760785   245A      3.789724  
     246A      3.791492   247A      3.804659   248A      3.806380  
     249A      3.899825   250A      3.901670   251A      4.049793  
     252A      4.051556   253A      4.141703   254A      4.143580  
     255A      4.309442   256A      4.311281  

    Final Occupation by Irrep:
              A 
    DOCC [    32 ]

  @DF-RHF Final Energy:  -455.68828581011508

   => Energetics <=

    Nuclear Repulsion Energy =            293.0200858585723154
    One-Electron Energy =               -1204.5628431241852923
    Two-Electron Energy =                 455.8544714554979009
    Total Energy =                       -455.6882858101150759

Computation Completed


Properties will be evaluated at   0.000000,   0.000000,   0.000000 [a0]

Properties computed using the SCF density matrix

  Nuclear Dipole Moment: [e a0]
     X:  -349.3171      Y:  -473.2817      Z:   -49.0983

  Electronic Dipole Moment: [e a0]
     X:   349.3176      Y:   472.7107      Z:    48.9306

  Dipole Moment: [e a0]
     X:     0.0004      Y:    -0.5710      Z:    -0.1677     Total:     0.5952

  Dipole Moment: [D]
     X:     0.0011      Y:    -1.4514      Z:    -0.4263     Total:     1.5128


*** tstop() called on ds1 at Wed Sep  1 14:28:53 2021
Module time:
	user time   =      16.60 seconds =       0.28 minutes
	system time =       0.40 seconds =       0.01 minutes
	total time  =          4 seconds =       0.07 minutes
Total time:
	user time   =      16.60 seconds =       0.28 minutes
	system time =       0.40 seconds =       0.01 minutes
	total time  =          4 seconds =       0.07 minutes

  //>>>>>>>>>>>>>>>>>>>>>>>>>>>>>>>>>>>//
  //            Monomer A HF           //
  //<<<<<<<<<<<<<<<<<<<<<<<<<<<<<<<<<<<//


*** tstart() called on ds1
*** at Wed Sep  1 14:28:53 2021

   => Loading Basis Set <=

    Name: AUG-CC-PVDZ
    Role: ORBITAL
    Keyword: BASIS
    atoms 1-2, 9-10  entry O          line   254 file /theoryfs2/ds/csargent/miniconda3/envs/cle/share/psi4/basis/aug-cc-pvdz.gbs 
    atoms 3-6, 11-14 entry H          line    40 file /theoryfs2/ds/csargent/miniconda3/envs/cle/share/psi4/basis/aug-cc-pvdz.gbs 
    atoms 7-8, 15-16 entry C          line   182 file /theoryfs2/ds/csargent/miniconda3/envs/cle/share/psi4/basis/aug-cc-pvdz.gbs 


         ---------------------------------------------------------
                                   SCF
               by Justin Turney, Rob Parrish, Andy Simmonett
                          and Daniel G. A. Smith
                              RHF Reference
                        6 Threads,   6675 MiB Core
         ---------------------------------------------------------

  ==> Geometry <==

    Molecular point group: c1
    Full point group: C1

    Geometry (in Bohr), charge = 0, multiplicity = 1:

       Center              X                  Y                   Z               Mass       
    ------------   -----------------  -----------------  -----------------  -----------------
         O           -5.531022370000     2.939402900000     1.977626240000    15.994914619570
         O           -2.407088860000     0.908177340000     0.049059090000    15.994914619570
         H           -0.503048870000     1.375792050000     4.638809080000     1.007825032230
         H            0.000000000000     4.251042850000     3.090722380000     1.007825032230
         H           -2.389482150000     4.019167790000     5.401950410000     1.007825032230
         H           -3.747714110000     0.471479300000    -1.215575120000     1.007825032230
         C           -1.418597820000     2.985005000000     3.844051900000    12.000000000000
         C           -3.322637810000     2.286288140000     1.912214130000    12.000000000000
      Gh(O)          -5.385138200000   -16.383519160000    -3.473383250000    15.994914619570
      Gh(O)          -8.509071700000   -18.414744730000    -5.401950410000    15.994914619570
      Gh(H)         -10.413111690000   -17.947130010000    -0.812200410000     1.007825032230
      Gh(H)         -10.916160570000   -15.071879210000    -2.360287110000     1.007825032230
      Gh(H)          -8.526678420000   -15.303754270000    -0.049059090000     1.007825032230
      Gh(H)          -7.168446460000   -18.851442770000    -6.666584610000     1.007825032230
      Gh(C)          -9.497562740000   -16.337917060000    -1.606957600000    12.000000000000
      Gh(C)          -7.593522750000   -17.036633930000    -3.538795360000    12.000000000000

  Running in c1 symmetry.

  Rotational constants: A =      0.03923  B =      0.00270  C =      0.00256 [cm^-1]
  Rotational constants: A =   1175.98269  B =     80.96639  C =     76.83630 [MHz]
  Nuclear repulsion =  121.748430210971620

  Charge       = 0
  Multiplicity = 1
  Electrons    = 32
  Nalpha       = 16
  Nbeta        = 16

  ==> Algorithm <==

  SCF Algorithm Type is DF.
  DIIS enabled.
  MOM disabled.
  Fractional occupation disabled.
  Guess Type is SAD.
  Energy threshold   = 1.00e-10
  Density threshold  = 1.00e-10
  Integral threshold = 1.00e-12

  ==> Primary Basis <==

  Basis Set: AUG-CC-PVDZ
    Blend: AUG-CC-PVDZ
    Number of shells: 112
    Number of basis functions: 256
    Number of Cartesian functions: 272
    Spherical Harmonics?: true
    Max angular momentum: 2

   => Loading Basis Set <=

    Name: (AUG-CC-PVDZ AUX)
    Role: JKFIT
    Keyword: DF_BASIS_SCF
    atoms 1-2, 9-10  entry O          line   270 file /theoryfs2/ds/csargent/miniconda3/envs/cle/share/psi4/basis/aug-cc-pvdz-jkfit.gbs 
    atoms 3-6, 11-14 entry H          line    70 file /theoryfs2/ds/csargent/miniconda3/envs/cle/share/psi4/basis/aug-cc-pvdz-jkfit.gbs 
    atoms 7-8, 15-16 entry C          line   154 file /theoryfs2/ds/csargent/miniconda3/envs/cle/share/psi4/basis/aug-cc-pvdz-jkfit.gbs 

  ==> Integral Setup <==

  ==> DiskDFJK: Density-Fitted J/K Matrices <==

    J tasked:                  Yes
    K tasked:                  Yes
    wK tasked:                  No
    OpenMP threads:              6
    Integrals threads:           6
    Memory [MiB]:             5006
    Algorithm:                Core
    Integral Cache:           LOAD
    Schwarz Cutoff:          1E-12
    Fitting Condition:       1E-10

   => Auxiliary Basis Set <=

  Basis Set: (AUG-CC-PVDZ AUX)
    Blend: AUG-CC-PVDZ-JKFIT
    Number of shells: 320
    Number of basis functions: 944
    Number of Cartesian functions: 1088
    Spherical Harmonics?: true
    Max angular momentum: 3

  Minimum eigenvalue in the overlap matrix is 1.0248824119E-04.
  Reciprocal condition number of the overlap matrix is 9.6249029361E-06.
    Using symmetric orthogonalization.

  ==> Pre-Iterations <==

  SCF Guess: Superposition of Atomic Densities via on-the-fly atomic UHF (no occupation information).

   -------------------------
    Irrep   Nso     Nmo    
   -------------------------
     A        256     256 
   -------------------------
    Total     256     256
   -------------------------

  ==> Iterations <==

                           Total Energy        Delta E     RMS |[F,P]|

   @DF-RHF iter SAD:  -226.98992943899970   -2.26990e+02   0.00000e+00 
   @DF-RHF iter   1:  -227.68091187168847   -6.90982e-01   2.28211e-03 DIIS
   @DF-RHF iter   2:  -227.80091468294020   -1.20003e-01   1.32478e-03 DIIS
   @DF-RHF iter   3:  -227.84132007712438   -4.04054e-02   2.33581e-04 DIIS
   @DF-RHF iter   4:  -227.84355653981547   -2.23646e-03   1.03339e-04 DIIS
   @DF-RHF iter   5:  -227.84403744130927   -4.80901e-04   2.42136e-05 DIIS
   @DF-RHF iter   6:  -227.84407460933087   -3.71680e-05   1.17797e-05 DIIS
   @DF-RHF iter   7:  -227.84408439747008   -9.78814e-06   3.84273e-06 DIIS
   @DF-RHF iter   8:  -227.84408597906159   -1.58159e-06   1.01577e-06 DIIS
   @DF-RHF iter   9:  -227.84408609571233   -1.16651e-07   2.12954e-07 DIIS
   @DF-RHF iter  10:  -227.84408609953289   -3.82056e-09   5.61609e-08 DIIS
   @DF-RHF iter  11:  -227.84408609973647   -2.03585e-10   1.80148e-08 DIIS
   @DF-RHF iter  12:  -227.84408609975821   -2.17426e-11   4.26467e-09 DIIS
   @DF-RHF iter  13:  -227.84408609975972   -1.50635e-12   8.93562e-10 DIIS
   @DF-RHF iter  14:  -227.84408609976003   -3.12639e-13   2.86707e-10 DIIS
   @DF-RHF iter  15:  -227.84408609976037   -3.41061e-13   1.08049e-10 DIIS
   @DF-RHF iter  16:  -227.84408609976029    8.52651e-14   2.85984e-11 DIIS
  Energy and wave function converged.


  ==> Post-Iterations <==

    Orbital Energies [Eh]
    ---------------------

    Doubly Occupied:                                                      

       1A    -20.629476     2A    -20.552804     3A    -11.396108  
       4A    -11.250979     5A     -1.475852     6A     -1.357486  
       7A     -1.032999     8A     -0.837930     9A     -0.703065  
      10A     -0.688465    11A     -0.657749    12A     -0.576538  
      13A     -0.569697    14A     -0.561403    15A     -0.475343  
      16A     -0.452433  

    Virtual:                                                              

      17A      0.023276    18A      0.032089    19A      0.043751  
      20A      0.047367    21A      0.053075    22A      0.056288  
      23A      0.059351    24A      0.064723    25A      0.084548  
      26A      0.098382    27A      0.104621    28A      0.111305  
      29A      0.113526    30A      0.117667    31A      0.122462  
      32A      0.138990    33A      0.140874    34A      0.142425  
      35A      0.146399    36A      0.153019    37A      0.157603  
      38A      0.164861    39A      0.171408    40A      0.176429  
      41A      0.196325    42A      0.204434    43A      0.209919  
      44A      0.216611    45A      0.225911    46A      0.233634  
      47A      0.235019    48A      0.243551    49A      0.259765  
      50A      0.264468    51A      0.271046    52A      0.276294  
      53A      0.284895    54A      0.290514    55A      0.295808  
      56A      0.320352    57A      0.322410    58A      0.333097  
      59A      0.337730    60A      0.347524    61A      0.368667  
      62A      0.371164    63A      0.379193    64A      0.394337  
      65A      0.398851    66A      0.401852    67A      0.409701  
      68A      0.426830    69A      0.430863    70A      0.437384  
      71A      0.439694    72A      0.442146    73A      0.460011  
      74A      0.475591    75A      0.489969    76A      0.492373  
      77A      0.496977    78A      0.516224    79A      0.524901  
      80A      0.537270    81A      0.541404    82A      0.543420  
      83A      0.553645    84A      0.559584    85A      0.570013  
      86A      0.583931    87A      0.586460    88A      0.602308  
      89A      0.616257    90A      0.618877    91A      0.635988  
      92A      0.636790    93A      0.640502    94A      0.649307  
      95A      0.666844    96A      0.674661    97A      0.684329  
      98A      0.689556    99A      0.697216   100A      0.700418  
     101A      0.703588   102A      0.727963   103A      0.733340  
     104A      0.742785   105A      0.753326   106A      0.760330  
     107A      0.786801   108A      0.798958   109A      0.815598  
     110A      0.819802   111A      0.847969   112A      0.853912  
     113A      0.876938   114A      0.887772   115A      0.896119  
     116A      0.912471   117A      0.947203   118A      0.949743  
     119A      0.954640   120A      0.957884   121A      0.975489  
     122A      0.983209   123A      1.037892   124A      1.041687  
     125A      1.044731   126A      1.088868   127A      1.102134  
     128A      1.105975   129A      1.118523   130A      1.157551  
     131A      1.161971   132A      1.172163   133A      1.176395  
     134A      1.190405   135A      1.236053   136A      1.260015  
     137A      1.269726   138A      1.272191   139A      1.319396  
     140A      1.329070   141A      1.358239   142A      1.383420  
     143A      1.390551   144A      1.396072   145A      1.412767  
     146A      1.434216   147A      1.457769   148A      1.463029  
     149A      1.467078   150A      1.468037   151A      1.469116  
     152A      1.537062   153A      1.546032   154A      1.568767  
     155A      1.635107   156A      1.650090   157A      1.683268  
     158A      1.715188   159A      1.716879   160A      1.755857  
     161A      1.773003   162A      1.799418   163A      1.848045  
     164A      1.865558   165A      1.882673   166A      1.883827  
     167A      1.936685   168A      1.966470   169A      1.979623  
     170A      2.026465   171A      2.037664   172A      2.070474  
     173A      2.122883   174A      2.172054   175A      2.193172  
     176A      2.244788   177A      2.250501   178A      2.253671  
     179A      2.264697   180A      2.272330   181A      2.273702  
     182A      2.302741   183A      2.312322   184A      2.336330  
     185A      2.338950   186A      2.361884   187A      2.376183  
     188A      2.379629   189A      2.430350   190A      2.438715  
     191A      2.466709   192A      2.505487   193A      2.536333  
     194A      2.585569   195A      2.623622   196A      2.652311  
     197A      2.664234   198A      2.699218   199A      2.754037  
     200A      2.783648   201A      2.786190   202A      2.823950  
     203A      2.833746   204A      2.886187   205A      2.915666  
     206A      2.974453   207A      3.001980   208A      3.016468  
     209A      3.042617   210A      3.178951   211A      3.182074  
     212A      3.278375   213A      3.310390   214A      3.346212  
     215A      3.356546   216A      3.431076   217A      3.486474  
     218A      3.662405   219A      3.666713   220A      3.690431  
     221A      3.736454   222A      3.739669   223A      3.759720  
     224A      3.790365   225A      3.805309   226A      3.900460  
     227A      4.025619   228A      4.050412   229A      4.142402  
     230A      4.153478   231A      4.309967   232A      4.504490  
     233A      4.616704   234A      4.724592   235A      4.925406  
     236A      4.969311   237A      4.977636   238A      5.001099  
     239A      5.016472   240A      5.033395   241A      5.052207  
     242A      5.221596   243A      5.243882   244A      5.614976  
     245A      5.660839   246A      5.790941   247A      5.868801  
     248A      6.052340   249A      6.228368   250A      6.520448  
     251A      6.789884   252A      7.092514   253A     18.345987  
     254A     18.940516   255A     33.524969   256A     33.563248  

    Final Occupation by Irrep:
              A 
    DOCC [    16 ]

  @DF-RHF Final Energy:  -227.84408609976029

   => Energetics <=

    Nuclear Repulsion Energy =            121.7484302109716197
    One-Electron Energy =                -552.7483738951738133
    Two-Electron Energy =                 203.1558575844419181
    Total Energy =                       -227.8440860997602897

Computation Completed


Properties will be evaluated at   0.000000,   0.000000,   0.000000 [a0]

Properties computed using the SCF density matrix

  Nuclear Dipole Moment: [e a0]
     X:   -98.5925      Y:    72.5259      Z:    62.6670

  Electronic Dipole Moment: [e a0]
     X:    99.4206      Y:   -72.8088      Z:   -62.7502

  Dipole Moment: [e a0]
     X:     0.8281      Y:    -0.2829      Z:    -0.0832     Total:     0.8790

  Dipole Moment: [D]
     X:     2.1048      Y:    -0.7191      Z:    -0.2116     Total:     2.2342


*** tstop() called on ds1 at Wed Sep  1 14:28:55 2021
Module time:
	user time   =      12.27 seconds =       0.20 minutes
	system time =       0.21 seconds =       0.00 minutes
	total time  =          2 seconds =       0.03 minutes
Total time:
	user time   =      29.05 seconds =       0.48 minutes
	system time =       0.62 seconds =       0.01 minutes
	total time  =          6 seconds =       0.10 minutes

  //>>>>>>>>>>>>>>>>>>>>>>>>>>>>>>>>>>>//
  //            Monomer B HF           //
  //<<<<<<<<<<<<<<<<<<<<<<<<<<<<<<<<<<<//


*** tstart() called on ds1
*** at Wed Sep  1 14:28:56 2021

   => Loading Basis Set <=

    Name: AUG-CC-PVDZ
    Role: ORBITAL
    Keyword: BASIS
    atoms 1-2, 9-10  entry O          line   254 file /theoryfs2/ds/csargent/miniconda3/envs/cle/share/psi4/basis/aug-cc-pvdz.gbs 
    atoms 3-6, 11-14 entry H          line    40 file /theoryfs2/ds/csargent/miniconda3/envs/cle/share/psi4/basis/aug-cc-pvdz.gbs 
    atoms 7-8, 15-16 entry C          line   182 file /theoryfs2/ds/csargent/miniconda3/envs/cle/share/psi4/basis/aug-cc-pvdz.gbs 


         ---------------------------------------------------------
                                   SCF
               by Justin Turney, Rob Parrish, Andy Simmonett
                          and Daniel G. A. Smith
                              RHF Reference
                        6 Threads,   6675 MiB Core
         ---------------------------------------------------------

  ==> Geometry <==

    Molecular point group: c1
    Full point group: C1

    Geometry (in Bohr), charge = 0, multiplicity = 1:

       Center              X                  Y                   Z               Mass       
    ------------   -----------------  -----------------  -----------------  -----------------
      Gh(O)          -5.531022370000     2.939402900000     1.977626240000    15.994914619570
      Gh(O)          -2.407088860000     0.908177340000     0.049059090000    15.994914619570
      Gh(H)          -0.503048870000     1.375792050000     4.638809080000     1.007825032230
      Gh(H)           0.000000000000     4.251042850000     3.090722380000     1.007825032230
      Gh(H)          -2.389482150000     4.019167790000     5.401950410000     1.007825032230
      Gh(H)          -3.747714110000     0.471479300000    -1.215575120000     1.007825032230
      Gh(C)          -1.418597820000     2.985005000000     3.844051900000    12.000000000000
      Gh(C)          -3.322637810000     2.286288140000     1.912214130000    12.000000000000
         O           -5.385138200000   -16.383519160000    -3.473383250000    15.994914619570
         O           -8.509071700000   -18.414744730000    -5.401950410000    15.994914619570
         H          -10.413111690000   -17.947130010000    -0.812200410000     1.007825032230
         H          -10.916160570000   -15.071879210000    -2.360287110000     1.007825032230
         H           -8.526678420000   -15.303754270000    -0.049059090000     1.007825032230
         H           -7.168446460000   -18.851442770000    -6.666584610000     1.007825032230
         C           -9.497562740000   -16.337917060000    -1.606957600000    12.000000000000
         C           -7.593522750000   -17.036633930000    -3.538795360000    12.000000000000

  Running in c1 symmetry.

  Rotational constants: A =      0.03923  B =      0.00270  C =      0.00256 [cm^-1]
  Rotational constants: A =   1175.98269  B =     80.96639  C =     76.83630 [MHz]
  Nuclear repulsion =  121.748430265774999

  Charge       = 0
  Multiplicity = 1
  Electrons    = 32
  Nalpha       = 16
  Nbeta        = 16

  ==> Algorithm <==

  SCF Algorithm Type is DF.
  DIIS enabled.
  MOM disabled.
  Fractional occupation disabled.
  Guess Type is SAD.
  Energy threshold   = 1.00e-10
  Density threshold  = 1.00e-10
  Integral threshold = 1.00e-12

  ==> Primary Basis <==

  Basis Set: AUG-CC-PVDZ
    Blend: AUG-CC-PVDZ
    Number of shells: 112
    Number of basis functions: 256
    Number of Cartesian functions: 272
    Spherical Harmonics?: true
    Max angular momentum: 2

   => Loading Basis Set <=

    Name: (AUG-CC-PVDZ AUX)
    Role: JKFIT
    Keyword: DF_BASIS_SCF
    atoms 1-2, 9-10  entry O          line   270 file /theoryfs2/ds/csargent/miniconda3/envs/cle/share/psi4/basis/aug-cc-pvdz-jkfit.gbs 
    atoms 3-6, 11-14 entry H          line    70 file /theoryfs2/ds/csargent/miniconda3/envs/cle/share/psi4/basis/aug-cc-pvdz-jkfit.gbs 
    atoms 7-8, 15-16 entry C          line   154 file /theoryfs2/ds/csargent/miniconda3/envs/cle/share/psi4/basis/aug-cc-pvdz-jkfit.gbs 

  ==> Integral Setup <==

  ==> DiskDFJK: Density-Fitted J/K Matrices <==

    J tasked:                  Yes
    K tasked:                  Yes
    wK tasked:                  No
    OpenMP threads:              6
    Integrals threads:           6
    Memory [MiB]:             5006
    Algorithm:                Core
    Integral Cache:           LOAD
    Schwarz Cutoff:          1E-12
    Fitting Condition:       1E-10

   => Auxiliary Basis Set <=

  Basis Set: (AUG-CC-PVDZ AUX)
    Blend: AUG-CC-PVDZ-JKFIT
    Number of shells: 320
    Number of basis functions: 944
    Number of Cartesian functions: 1088
    Spherical Harmonics?: true
    Max angular momentum: 3

  Minimum eigenvalue in the overlap matrix is 1.0248824119E-04.
  Reciprocal condition number of the overlap matrix is 9.6249029361E-06.
    Using symmetric orthogonalization.

  ==> Pre-Iterations <==

  SCF Guess: Superposition of Atomic Densities via on-the-fly atomic UHF (no occupation information).

   -------------------------
    Irrep   Nso     Nmo    
   -------------------------
     A        256     256 
   -------------------------
    Total     256     256
   -------------------------

  ==> Iterations <==

                           Total Energy        Delta E     RMS |[F,P]|

   @DF-RHF iter SAD:  -226.98992944077037   -2.26990e+02   0.00000e+00 
   @DF-RHF iter   1:  -227.68091203405763   -6.90983e-01   2.28211e-03 DIIS
   @DF-RHF iter   2:  -227.80091484727052   -1.20003e-01   1.32478e-03 DIIS
   @DF-RHF iter   3:  -227.84132028769739   -4.04054e-02   2.33581e-04 DIIS
   @DF-RHF iter   4:  -227.84355675194047   -2.23646e-03   1.03339e-04 DIIS
   @DF-RHF iter   5:  -227.84403765407046   -4.80902e-04   2.42136e-05 DIIS
   @DF-RHF iter   6:  -227.84407482209832   -3.71680e-05   1.17797e-05 DIIS
   @DF-RHF iter   7:  -227.84408461022082   -9.78812e-06   3.84272e-06 DIIS
   @DF-RHF iter   8:  -227.84408619181249   -1.58159e-06   1.01577e-06 DIIS
   @DF-RHF iter   9:  -227.84408630846295   -1.16650e-07   2.12953e-07 DIIS
   @DF-RHF iter  10:  -227.84408631228368   -3.82073e-09   5.61603e-08 DIIS
   @DF-RHF iter  11:  -227.84408631248701   -2.03329e-10   1.80147e-08 DIIS
   @DF-RHF iter  12:  -227.84408631250903   -2.20268e-11   4.26467e-09 DIIS
   @DF-RHF iter  13:  -227.84408631251074   -1.70530e-12   8.93560e-10 DIIS
   @DF-RHF iter  14:  -227.84408631251077   -2.84217e-14   2.86699e-10 DIIS
   @DF-RHF iter  15:  -227.84408631251088   -1.13687e-13   1.08053e-10 DIIS
   @DF-RHF iter  16:  -227.84408631251063    2.55795e-13   2.86041e-11 DIIS
  Energy and wave function converged.


  ==> Post-Iterations <==

    Orbital Energies [Eh]
    ---------------------

    Doubly Occupied:                                                      

       1A    -20.629476     2A    -20.552804     3A    -11.396108  
       4A    -11.250979     5A     -1.475852     6A     -1.357486  
       7A     -1.032999     8A     -0.837930     9A     -0.703065  
      10A     -0.688465    11A     -0.657749    12A     -0.576538  
      13A     -0.569697    14A     -0.561403    15A     -0.475343  
      16A     -0.452433  

    Virtual:                                                              

      17A      0.025362    18A      0.032112    19A      0.044133  
      20A      0.048390    21A      0.055109    22A      0.055877  
      23A      0.057887    24A      0.067195    25A      0.086276  
      26A      0.099162    27A      0.106431    28A      0.112783  
      29A      0.117396    30A      0.117575    31A      0.119143  
      32A      0.138286    33A      0.142054    34A      0.143459  
      35A      0.148654    36A      0.153975    37A      0.156819  
      38A      0.165534    39A      0.171474    40A      0.178462  
      41A      0.196306    42A      0.207065    43A      0.209272  
      44A      0.215889    45A      0.226965    46A      0.234100  
      47A      0.236846    48A      0.245496    49A      0.261707  
      50A      0.266096    51A      0.271439    52A      0.278684  
      53A      0.286877    54A      0.291046    55A      0.295899  
      56A      0.319871    57A      0.322890    58A      0.333721  
      59A      0.337598    60A      0.347315    61A      0.369171  
      62A      0.372255    63A      0.378924    64A      0.393907  
      65A      0.399080    66A      0.404421    67A      0.411373  
      68A      0.427281    69A      0.432377    70A      0.438176  
      71A      0.439965    72A      0.442072    73A      0.461962  
      74A      0.475713    75A      0.491555    76A      0.492496  
      77A      0.498865    78A      0.517755    79A      0.524831  
      80A      0.537293    81A      0.543681    82A      0.544875  
      83A      0.554029    84A      0.560822    85A      0.570734  
      86A      0.583904    87A      0.588266    88A      0.602233  
      89A      0.617286    90A      0.618907    91A      0.637543  
      92A      0.638232    93A      0.640360    94A      0.649313  
      95A      0.666843    96A      0.676457    97A      0.684228  
      98A      0.691144    99A      0.697221   100A      0.701960  
     101A      0.703662   102A      0.729401   103A      0.733357  
     104A      0.742752   105A      0.754799   106A      0.761535  
     107A      0.788347   108A      0.798521   109A      0.816904  
     110A      0.821219   111A      0.849535   112A      0.853640  
     113A      0.876816   114A      0.890102   115A      0.898369  
     116A      0.912487   117A      0.948713   118A      0.949908  
     119A      0.954468   120A      0.959287   121A      0.977142  
     122A      0.983228   123A      1.039122   124A      1.041624  
     125A      1.046855   126A      1.088884   127A      1.101741  
     128A      1.108057   129A      1.118546   130A      1.157528  
     131A      1.163742   132A      1.172299   133A      1.176380  
     134A      1.192229   135A      1.236239   136A      1.261902  
     137A      1.271455   138A      1.272253   139A      1.319246  
     140A      1.330866   141A      1.358345   142A      1.385175  
     143A      1.391007   144A      1.397502   145A      1.412667  
     146A      1.435687   147A      1.459658   148A      1.462813  
     149A      1.467985   150A      1.468947   151A      1.470930  
     152A      1.539192   153A      1.546131   154A      1.570495  
     155A      1.635284   156A      1.649983   157A      1.684998  
     158A      1.715396   159A      1.718948   160A      1.755822  
     161A      1.773043   162A      1.801383   163A      1.848081  
     164A      1.865510   165A      1.883773   166A      1.884136  
     167A      1.938217   168A      1.966501   169A      1.979574  
     170A      2.026337   171A      2.037816   172A      2.071912  
     173A      2.122959   174A      2.172105   175A      2.193287  
     176A      2.244811   177A      2.251972   178A      2.253667  
     179A      2.266193   180A      2.272363   181A      2.275438  
     182A      2.304163   183A      2.312338   184A      2.337670  
     185A      2.340404   186A      2.363448   187A      2.377884  
     188A      2.379649   189A      2.430412   190A      2.438695  
     191A      2.468447   192A      2.507327   193A      2.536330  
     194A      2.587210   195A      2.623774   196A      2.652308  
     197A      2.665952   198A      2.699678   199A      2.755558  
     200A      2.783756   201A      2.787403   202A      2.825377  
     203A      2.833654   204A      2.886142   205A      2.917375  
     206A      2.974351   207A      3.001606   208A      3.016345  
     209A      3.043992   210A      3.179135   211A      3.183617  
     212A      3.280007   213A      3.311940   214A      3.346398  
     215A      3.358101   216A      3.432710   217A      3.488065  
     218A      3.664079   219A      3.666828   220A      3.690424  
     221A      3.736478   222A      3.741511   223A      3.759668  
     224A      3.790343   225A      3.805304   226A      3.900432  
     227A      4.027379   228A      4.050418   229A      4.142366  
     230A      4.155564   231A      4.309991   232A      4.506157  
     233A      4.618385   234A      4.726209   235A      4.927144  
     236A      4.970971   237A      4.979528   238A      5.002927  
     239A      5.018336   240A      5.035257   241A      5.053742  
     242A      5.223357   243A      5.245495   244A      5.616867  
     245A      5.662964   246A      5.792961   247A      5.870307  
     248A      6.054084   249A      6.230009   250A      6.522479  
     251A      6.792008   252A      7.094354   253A     18.347566  
     254A     18.942065   255A     33.526631   256A     33.565212  

    Final Occupation by Irrep:
              A 
    DOCC [    16 ]

  @DF-RHF Final Energy:  -227.84408631251063

   => Energetics <=

    Nuclear Repulsion Energy =            121.7484302657749993
    One-Electron Energy =                -552.7483739189374319
    Two-Electron Energy =                 203.1558573406517780
    Total Energy =                       -227.8440863125106262

Computation Completed


Properties will be evaluated at   0.000000,   0.000000,   0.000000 [a0]

Properties computed using the SCF density matrix

  Nuclear Dipole Moment: [e a0]
     X:  -250.7246      Y:  -545.8076      Z:  -111.7653

  Electronic Dipole Moment: [e a0]
     X:   249.8965      Y:   545.5247      Z:   111.6821

  Dipole Moment: [e a0]
     X:    -0.8281      Y:    -0.2829      Z:    -0.0832     Total:     0.8790

  Dipole Moment: [D]
     X:    -2.1047      Y:    -0.7191      Z:    -0.2116     Total:     2.2342


*** tstop() called on ds1 at Wed Sep  1 14:28:58 2021
Module time:
	user time   =      12.27 seconds =       0.20 minutes
	system time =       0.18 seconds =       0.00 minutes
	total time  =          2 seconds =       0.03 minutes
Total time:
	user time   =      41.40 seconds =       0.69 minutes
	system time =       0.80 seconds =       0.01 minutes
	total time  =          9 seconds =       0.15 minutes
  Constructing Basis Sets for SAPT...

   => Loading Basis Set <=

    Name: (AUG-CC-PVDZ AUX)
    Role: RIFIT
    Keyword: DF_BASIS_SAPT
    atoms 1-2, 9-10  entry O          line   204 file /theoryfs2/ds/csargent/miniconda3/envs/cle/share/psi4/basis/aug-cc-pvdz-ri.gbs 
    atoms 3-6, 11-14 entry H          line    30 file /theoryfs2/ds/csargent/miniconda3/envs/cle/share/psi4/basis/aug-cc-pvdz-ri.gbs 
    atoms 7-8, 15-16 entry C          line   112 file /theoryfs2/ds/csargent/miniconda3/envs/cle/share/psi4/basis/aug-cc-pvdz-ri.gbs 


  //>>>>>>>>>>>>>>>>>>>>>>>>>>>>>>>>>>>//
  //               SAPT0               //
  //<<<<<<<<<<<<<<<<<<<<<<<<<<<<<<<<<<<//


*** tstart() called on ds1
*** at Wed Sep  1 14:28:58 2021

        SAPT0  
    Ed Hohenstein
     6 June 2009

      Orbital Information
  --------------------------
    NSO        =       256
    NMO        =       256
    NRI        =       760
    NOCC A     =        16
    NOCC B     =        16
    FOCC A     =         4
    FOCC B     =         4
    NVIR A     =       240
    NVIR B     =       240

    Elst10,r            =    -0.000112590891 [Eh]
    Exch10              =    -0.000000000060 [Eh]
    Exch10 (S^2)        =    -0.000000000060 [Eh]

    Iter     Energy [mEh]          dE [mEh]         Residual      Time [s]
       1      -0.00047079       0.000470793       0.229325975             0
       2      -0.00046815      -0.000002642       0.074830572             0
       3      -0.00052641       0.000058258       0.025191494             0
       4      -0.00053165       0.000005244       0.009369025             0
       5      -0.00052948      -0.000002178       0.004671829             0
       6      -0.00052868      -0.000000795       0.001140362             0
       7      -0.00052895       0.000000274       0.000302821             0
       8      -0.00052899       0.000000039       0.000068200             0
       9      -0.00052898      -0.000000010       0.000021720             1
      10      -0.00052898      -0.000000003       0.000005454             1
      11      -0.00052898       0.000000001       0.000001386             1
      12      -0.00052898      -0.000000000       0.000000566             1

    CHF Iterations converged


    Iter     Energy [mEh]          dE [mEh]         Residual      Time [s]
       1      -0.00017772       0.000177723       0.134526551             0
       2      -0.00017879       0.000001070       0.046592077             0
       3      -0.00020022       0.000021425       0.016690317             0
       4      -0.00020285       0.000002632       0.005740786             0
       5      -0.00020163      -0.000001217       0.002273125             0
       6      -0.00020151      -0.000000127       0.000674899             0
       7      -0.00020159       0.000000082       0.000219389             0
       8      -0.00020161       0.000000019       0.000055509             0
       9      -0.00020160      -0.000000004       0.000014224             0
      10      -0.00020160      -0.000000001       0.000003411             0
      11      -0.00020160       0.000000000       0.000001154             1
      12      -0.00020160      -0.000000000       0.000000522             1

    CHF Iterations converged

    Ind20,r (A<-B)      =    -0.000000528981 [Eh]
    Ind20,r (B<-A)      =    -0.000000201601 [Eh]
    Ind20,r             =    -0.000000730582 [Eh]
    Exch-Ind20,r (A<-B) =     0.000000000158 [Eh]
    Exch-Ind20,r (B<-A) =     0.000000000096 [Eh]
    Exch-Ind20,r        =     0.000000000253 [Eh]
    Disp20              =    -0.000007600049 [Eh]
    Disp20 (SS)         =    -0.000003800025 [Eh]
    Disp20 (OS)         =    -0.000003800025 [Eh]
    Exch-Disp20         =     0.000000000044 [Eh]
    Exch-Disp20 (SS)    =     0.000000000036 [Eh]
    Exch-Disp20 (OS)    =     0.000000000007 [Eh]

    SAPT Results 
  --------------------------------------------------------------------------------------------------------
    Electrostatics                 -0.11259089 [mEh]      -0.07065185 [kcal/mol]      -0.29560734 [kJ/mol]
      Elst10,r                     -0.11259089 [mEh]      -0.07065185 [kcal/mol]      -0.29560734 [kJ/mol]

    Exchange                       -0.00000006 [mEh]      -0.00000004 [kcal/mol]      -0.00000016 [kJ/mol]
      Exch10                       -0.00000006 [mEh]      -0.00000004 [kcal/mol]      -0.00000016 [kJ/mol]
      Exch10(S^2)                  -0.00000006 [mEh]      -0.00000004 [kcal/mol]      -0.00000016 [kJ/mol]

    Induction                      -0.00080689 [mEh]      -0.00050633 [kcal/mol]      -0.00211850 [kJ/mol]
      Ind20,r                      -0.00073058 [mEh]      -0.00045845 [kcal/mol]      -0.00191814 [kJ/mol]
      Exch-Ind20,r                  0.00000025 [mEh]       0.00000016 [kcal/mol]       0.00000067 [kJ/mol]
      delta HF,r (2)               -0.00007656 [mEh]      -0.00004804 [kcal/mol]      -0.00020102 [kJ/mol]

    Dispersion                     -0.00760001 [mEh]      -0.00476908 [kcal/mol]      -0.01995381 [kJ/mol]
      Disp20                       -0.00760005 [mEh]      -0.00476910 [kcal/mol]      -0.01995393 [kJ/mol]
      Exch-Disp20                   0.00000004 [mEh]       0.00000003 [kcal/mol]       0.00000011 [kJ/mol]
      Disp20 (SS)                  -0.00380002 [mEh]      -0.00238455 [kcal/mol]      -0.00997696 [kJ/mol]
      Disp20 (OS)                  -0.00380002 [mEh]      -0.00238455 [kcal/mol]      -0.00997696 [kJ/mol]
      Exch-Disp20 (SS)              0.00000004 [mEh]       0.00000002 [kcal/mol]       0.00000010 [kJ/mol]
      Exch-Disp20 (OS)              0.00000001 [mEh]       0.00000000 [kcal/mol]       0.00000002 [kJ/mol]

  Total HF                         -0.11339784 [mEh]      -0.07115822 [kcal/mol]      -0.29772600 [kJ/mol]
  Total SAPT0                      -0.12099785 [mEh]      -0.07592730 [kcal/mol]      -0.31767981 [kJ/mol]

  Special recipe for scaled SAPT0 (see Manual):
    Electrostatics sSAPT0          -0.11259089 [mEh]      -0.07065185 [kcal/mol]      -0.29560734 [kJ/mol]
    Exchange sSAPT0                -0.00000006 [mEh]      -0.00000004 [kcal/mol]      -0.00000016 [kJ/mol]
    Induction sSAPT0               -0.00080689 [mEh]      -0.00050633 [kcal/mol]      -0.00211850 [kJ/mol]
    Dispersion sSAPT0              -0.00760001 [mEh]      -0.00476908 [kcal/mol]      -0.01995381 [kJ/mol]
  Total sSAPT0                     -0.12099785 [mEh]      -0.07592730 [kcal/mol]      -0.31767981 [kJ/mol]
  --------------------------------------------------------------------------------------------------------

*** tstop() called on ds1 at Wed Sep  1 14:29:04 2021
Module time:
	user time   =      28.48 seconds =       0.47 minutes
	system time =       2.54 seconds =       0.04 minutes
	total time  =          6 seconds =       0.10 minutes
Total time:
	user time   =      70.62 seconds =       1.18 minutes
	system time =       3.37 seconds =       0.06 minutes
	total time  =         15 seconds =       0.25 minutes


Warning! sapt0 does not have an associated derived wavefunction.The returned wavefunction is the dimer SCF wavefunction.


    Psi4 stopped on: Wednesday, 01 September 2021 02:29PM
    Psi4 wall time for execution: 0:00:15.14

*** Psi4 exiting successfully. Buy a developer a beer!
