
    -----------------------------------------------------------------------
          Psi4: An Open-Source Ab Initio Electronic Structure Package
                               Psi4 1.4rc3 

                         Git: Rev {HEAD} 080dba6 


    D. G. A. Smith, L. A. Burns, A. C. Simmonett, R. M. Parrish,
    M. C. Schieber, R. Galvelis, P. Kraus, H. Kruse, R. Di Remigio,
    A. Alenaizan, A. M. James, S. Lehtola, J. P. Misiewicz, M. Scheurer,
    R. A. Shaw, J. B. Schriber, Y. Xie, Z. L. Glick, D. A. Sirianni,
    J. S. O'Brien, J. M. Waldrop, A. Kumar, E. G. Hohenstein,
    B. P. Pritchard, B. R. Brooks, H. F. Schaefer III, A. Yu. Sokolov,
    K. Patkowski, A. E. DePrince III, U. Bozkaya, R. A. King,
    F. A. Evangelista, J. M. Turney, T. D. Crawford, C. D. Sherrill,
    J. Chem. Phys. 152(18) 184108 (2020). https://doi.org/10.1063/5.0006002

                            Additional Code Authors
    E. T. Seidl, C. L. Janssen, E. F. Valeev, M. L. Leininger,
    J. F. Gonthier, R. M. Richard, H. R. McAlexander, M. Saitow, X. Wang,
    P. Verma, and M. H. Lechner

             Previous Authors, Complete List of Code Contributors,
                       and Citations for Specific Modules
    https://github.com/psi4/psi4/blob/master/codemeta.json
    https://github.com/psi4/psi4/graphs/contributors
    http://psicode.org/psi4manual/master/introduction.html#citing-psifour

    -----------------------------------------------------------------------


    Psi4 started on: Wednesday, 01 September 2021 02:24PM

    Process ID: 21610
    Host:       ds1
    PSIDATADIR: /theoryfs2/ds/csargent/miniconda3/envs/cle/share/psi4
    Memory:     500.0 MiB
    Threads:    6
    
  ==> Input File <==

--------------------------------------------------------------------------
# PSI4 file produced by CrystaLattE

# Generated from:               acetic_acid.xyz
# Psithon input for N-mer:      2mer-0+641
# Number of atoms per monomer:  [8, 8]
# Number of replicas:           2
# COM priority:                 1.233286549864e-05
# Minimum COM separations:      22.904 
# Separation priority:          1.869510982904e-05
# Minimum monomer separations:  19.938 
# Cutoff priority:              4.961778365613e-07
# Nuclear repulsion energy:     267.1324413186429

memory 7 GB

molecule Dimer_0_641 {
  O           -5.53102237       2.93940290       1.97762624 
  O           -2.40708886       0.90817734       0.04905909 
  H           -0.50304887       1.37579205       4.63880908 
  H            0.00000000       4.25104285       3.09072238 
  H           -2.38948215       4.01916779       5.40195041 
  H           -3.74771411       0.47147930      -1.21557512 
  C           -1.41859782       2.98500500       3.84405190 
  C           -3.32263781       2.28628814       1.91221413 
--
  O          -17.96136005      12.67351812     -36.17944022 
  O          -21.08529356      14.70474369     -38.10800738 
  H          -22.98933354      14.23712898     -33.51825739 
  H          -23.49238242      11.36187817     -35.06634408 
  H          -21.10290027      11.59375324     -32.75511606 
  H          -19.74466831      15.14144173     -39.37264158 
  C          -22.07378459      12.62791603     -34.31301457 
  C          -20.16974460      13.32663289     -36.24485234 
units = au
no_com
no_reorient
}

set {
  e_convergence 10
  d_convergence 10
  scf_type df
  mp2_type df
  cc_type df
  freeze_core true
}

energy('sapt0/aug-cc-pvdz')

--------------------------------------------------------------------------

  Memory set to   6.519 GiB by Python driver.

Scratch directory: /scratch/csargent/psi4.17562.33784/

Scratch directory: /scratch/csargent/psi4.17562.33784/

  //>>>>>>>>>>>>>>>>>>>>>>>>>>>>>>>>>>>//
  //              Dimer HF             //
  //<<<<<<<<<<<<<<<<<<<<<<<<<<<<<<<<<<<//


*** tstart() called on ds1
*** at Wed Sep  1 14:24:29 2021

   => Loading Basis Set <=

    Name: AUG-CC-PVDZ
    Role: ORBITAL
    Keyword: BASIS
    atoms 1-2, 9-10  entry O          line   254 file /theoryfs2/ds/csargent/miniconda3/envs/cle/share/psi4/basis/aug-cc-pvdz.gbs 
    atoms 3-6, 11-14 entry H          line    40 file /theoryfs2/ds/csargent/miniconda3/envs/cle/share/psi4/basis/aug-cc-pvdz.gbs 
    atoms 7-8, 15-16 entry C          line   182 file /theoryfs2/ds/csargent/miniconda3/envs/cle/share/psi4/basis/aug-cc-pvdz.gbs 


         ---------------------------------------------------------
                                   SCF
               by Justin Turney, Rob Parrish, Andy Simmonett
                          and Daniel G. A. Smith
                              RHF Reference
                        6 Threads,   6675 MiB Core
         ---------------------------------------------------------

  ==> Geometry <==

    Molecular point group: c1
    Full point group: C1

    Geometry (in Bohr), charge = 0, multiplicity = 1:

       Center              X                  Y                   Z               Mass       
    ------------   -----------------  -----------------  -----------------  -----------------
         O           -5.531022370000     2.939402900000     1.977626240000    15.994914619570
         O           -2.407088860000     0.908177340000     0.049059090000    15.994914619570
         H           -0.503048870000     1.375792050000     4.638809080000     1.007825032230
         H            0.000000000000     4.251042850000     3.090722380000     1.007825032230
         H           -2.389482150000     4.019167790000     5.401950410000     1.007825032230
         H           -3.747714110000     0.471479300000    -1.215575120000     1.007825032230
         C           -1.418597820000     2.985005000000     3.844051900000    12.000000000000
         C           -3.322637810000     2.286288140000     1.912214130000    12.000000000000
         O          -17.961360050000    12.673518120000   -36.179440220000    15.994914619570
         O          -21.085293560000    14.704743690000   -38.108007380000    15.994914619570
         H          -22.989333540000    14.237128980000   -33.518257390000     1.007825032230
         H          -23.492382420000    11.361878170000   -35.066344080000     1.007825032230
         H          -21.102900270000    11.593753240000   -32.755116060000     1.007825032230
         H          -19.744668310000    15.141441730000   -39.372641580000     1.007825032230
         C          -22.073784590000    12.627916030000   -34.313014570000    12.000000000000
         C          -20.169744600000    13.326632890000   -36.244852340000    12.000000000000

  Running in c1 symmetry.

  Rotational constants: A =      0.03985  B =      0.00052  C =      0.00052 [cm^-1]
  Rotational constants: A =   1194.79619  B =     15.71256  C =     15.54362 [MHz]
  Nuclear repulsion =  267.132441398823232

  Charge       = 0
  Multiplicity = 1
  Electrons    = 64
  Nalpha       = 32
  Nbeta        = 32

  ==> Algorithm <==

  SCF Algorithm Type is DF.
  DIIS enabled.
  MOM disabled.
  Fractional occupation disabled.
  Guess Type is SAD.
  Energy threshold   = 1.00e-10
  Density threshold  = 1.00e-10
  Integral threshold = 1.00e-12

  ==> Primary Basis <==

  Basis Set: AUG-CC-PVDZ
    Blend: AUG-CC-PVDZ
    Number of shells: 112
    Number of basis functions: 256
    Number of Cartesian functions: 272
    Spherical Harmonics?: true
    Max angular momentum: 2

   => Loading Basis Set <=

    Name: (AUG-CC-PVDZ AUX)
    Role: JKFIT
    Keyword: DF_BASIS_SCF
    atoms 1-2, 9-10  entry O          line   270 file /theoryfs2/ds/csargent/miniconda3/envs/cle/share/psi4/basis/aug-cc-pvdz-jkfit.gbs 
    atoms 3-6, 11-14 entry H          line    70 file /theoryfs2/ds/csargent/miniconda3/envs/cle/share/psi4/basis/aug-cc-pvdz-jkfit.gbs 
    atoms 7-8, 15-16 entry C          line   154 file /theoryfs2/ds/csargent/miniconda3/envs/cle/share/psi4/basis/aug-cc-pvdz-jkfit.gbs 

  ==> Integral Setup <==

  ==> DiskDFJK: Density-Fitted J/K Matrices <==

    J tasked:                  Yes
    K tasked:                  Yes
    wK tasked:                  No
    OpenMP threads:              6
    Integrals threads:           6
    Memory [MiB]:             5006
    Algorithm:                Core
    Integral Cache:           SAVE
    Schwarz Cutoff:          1E-12
    Fitting Condition:       1E-10

   => Auxiliary Basis Set <=

  Basis Set: (AUG-CC-PVDZ AUX)
    Blend: AUG-CC-PVDZ-JKFIT
    Number of shells: 320
    Number of basis functions: 944
    Number of Cartesian functions: 1088
    Spherical Harmonics?: true
    Max angular momentum: 3

  Minimum eigenvalue in the overlap matrix is 1.0277546746E-04.
  Reciprocal condition number of the overlap matrix is 9.6539168442E-06.
    Using symmetric orthogonalization.

  ==> Pre-Iterations <==

  SCF Guess: Superposition of Atomic Densities via on-the-fly atomic UHF (no occupation information).

   -------------------------
    Irrep   Nso     Nmo    
   -------------------------
     A        256     256 
   -------------------------
    Total     256     256
   -------------------------

  ==> Iterations <==

                           Total Energy        Delta E     RMS |[F,P]|

   @DF-RHF iter SAD:  -453.97985886338779   -4.53980e+02   0.00000e+00 
   @DF-RHF iter   1:  -455.36184443156156   -1.38199e+00   3.22735e-03 DIIS
   @DF-RHF iter   2:  -455.60184833610185   -2.40004e-01   1.87341e-03 DIIS
   @DF-RHF iter   3:  -455.68264978495324   -8.08014e-02   3.30294e-04 DIIS
   @DF-RHF iter   4:  -455.68712210867153   -4.47232e-03   1.46128e-04 DIIS
   @DF-RHF iter   5:  -455.68808370097565   -9.61592e-04   3.42397e-05 DIIS
   @DF-RHF iter   6:  -455.68815802135316   -7.43204e-05   1.66578e-05 DIIS
   @DF-RHF iter   7:  -455.68817759263538   -1.95713e-05   5.43357e-06 DIIS
   @DF-RHF iter   8:  -455.68818075506107   -3.16243e-06   1.43643e-06 DIIS
   @DF-RHF iter   9:  -455.68818098833498   -2.33274e-07   3.01183e-07 DIIS
   @DF-RHF iter  10:  -455.68818099597706   -7.64209e-09   7.94282e-08 DIIS
   @DF-RHF iter  11:  -455.68818099638440   -4.07340e-10   2.54777e-08 DIIS
   @DF-RHF iter  12:  -455.68818099642829   -4.38831e-11   6.03170e-09 DIIS
   @DF-RHF iter  13:  -455.68818099643192   -3.63798e-12   1.26425e-09 DIIS
   @DF-RHF iter  14:  -455.68818099643198   -5.68434e-14   4.07101e-10 DIIS
   @DF-RHF iter  15:  -455.68818099643175    2.27374e-13   1.53548e-10 DIIS
   @DF-RHF iter  16:  -455.68818099643244   -6.82121e-13   4.07885e-11 DIIS
  Energy and wave function converged.


  ==> Post-Iterations <==

    Orbital Energies [Eh]
    ---------------------

    Doubly Occupied:                                                      

       1A    -20.629352     2A    -20.629211     3A    -20.552678  
       4A    -20.552561     5A    -11.395978     6A    -11.395864  
       7A    -11.250823     8A    -11.250746     9A     -1.475727  
      10A     -1.475595    11A     -1.357361    12A     -1.357238  
      13A     -1.032851    14A     -1.032761    15A     -0.837798  
      16A     -0.837674    17A     -0.702941    18A     -0.702817  
      19A     -0.688328    20A     -0.688219    21A     -0.657614  
      22A     -0.657499    23A     -0.576405    24A     -0.576291  
      25A     -0.569552    26A     -0.569452    27A     -0.561250  
      28A     -0.561168    29A     -0.475221    30A     -0.475097  
      31A     -0.452306    32A     -0.452191  

    Virtual:                                                              

      33A      0.032359    34A      0.032488    35A      0.045765  
      36A      0.045911    37A      0.055257    38A      0.055332  
      39A      0.064823    40A      0.064834    41A      0.098924  
      42A      0.099006    43A      0.117457    44A      0.117571  
      45A      0.117990    46A      0.118110    47A      0.140678  
      48A      0.140799    49A      0.152133    50A      0.152234  
      51A      0.156520    52A      0.156577    53A      0.164721  
      54A      0.164820    55A      0.171462    56A      0.171559  
      57A      0.196449    58A      0.196547    59A      0.209357  
      60A      0.209518    61A      0.233504    62A      0.233638  
      63A      0.235100    64A      0.235206    65A      0.270998  
      66A      0.271080    67A      0.290403    68A      0.290528  
      69A      0.295952    70A      0.296051    71A      0.319960  
      72A      0.320097    73A      0.322900    74A      0.323022  
      75A      0.347422    76A      0.347517    77A      0.370781  
      78A      0.370890    79A      0.379022    80A      0.379115  
      81A      0.394256    82A      0.394362    83A      0.401568  
      84A      0.401674    85A      0.426837    86A      0.426943  
      87A      0.438370    88A      0.438457    89A      0.442160  
      90A      0.442251    91A      0.475682    92A      0.475814  
      93A      0.492509    94A      0.492602    95A      0.524919  
      96A      0.525000    97A      0.537401    98A      0.537491  
      99A      0.553637   100A      0.553733   101A      0.569896  
     102A      0.569974   103A      0.583944   104A      0.584027  
     105A      0.602232   106A      0.602363   107A      0.618375  
     108A      0.618478   109A      0.640454   110A      0.640559  
     111A      0.649447   112A      0.649544   113A      0.666854  
     114A      0.666949   115A      0.684353   116A      0.684452  
     117A      0.697330   118A      0.697429   119A      0.703725  
     120A      0.703804   121A      0.733432   122A      0.733531  
     123A      0.742890   124A      0.742987   125A      0.798615  
     126A      0.798694   127A      0.853719   128A      0.853830  
     129A      0.876959   130A      0.877080   131A      0.912534  
     132A      0.912650   133A      0.949833   134A      0.949945  
     135A      0.954512   136A      0.954625   137A      0.983278  
     138A      0.983393   139A      1.041680   140A      1.041797  
     141A      1.088969   142A      1.089056   143A      1.101989  
     144A      1.102076   145A      1.118513   146A      1.118605  
     147A      1.157646   148A      1.157777   149A      1.172274  
     150A      1.172394   151A      1.176496   152A      1.176605  
     153A      1.236167   154A      1.236291   155A      1.272313  
     156A      1.272433   157A      1.319353   158A      1.319472  
     159A      1.358308   160A      1.358424   161A      1.390571  
     162A      1.390677   163A      1.412595   164A      1.412689  
     165A      1.462916   166A      1.463043   167A      1.468099  
     168A      1.468233   169A      1.546162   170A      1.546252  
     171A      1.635182   172A      1.635299   173A      1.650050  
     174A      1.650163   175A      1.715238   176A      1.715348  
     177A      1.755941   178A      1.756042   179A      1.773034  
     180A      1.773119   181A      1.848172   182A      1.848281  
     183A      1.865650   184A      1.865745   185A      1.883968  
     186A      1.884045   187A      1.966589   188A      1.966709  
     189A      1.979583   190A      1.979701   191A      2.026443  
     192A      2.026538   193A      2.037777   194A      2.037892  
     195A      2.122983   196A      2.123097   197A      2.172191  
     198A      2.172296   199A      2.193279   200A      2.193381  
     201A      2.244921   202A      2.245008   203A      2.253784  
     204A      2.253888   205A      2.272489   206A      2.272596  
     207A      2.312385   208A      2.312493   209A      2.379751  
     210A      2.379845   211A      2.430465   212A      2.430584  
     213A      2.438809   214A      2.438905   215A      2.536447  
     216A      2.536543   217A      2.623722   218A      2.623829  
     219A      2.652461   220A      2.652540   221A      2.783827  
     222A      2.783920   223A      2.833789   224A      2.833891  
     225A      2.886269   226A      2.886361   227A      2.974430  
     228A      2.974544   229A      3.001749   230A      3.001844  
     231A      3.016456   232A      3.016561   233A      3.179068  
     234A      3.179187   235A      3.346254   236A      3.346371  
     237A      3.666830   238A      3.666967   239A      3.690548  
     240A      3.690686   241A      3.736565   242A      3.736696  
     243A      3.759785   244A      3.759907   245A      3.790448  
     246A      3.790573   247A      3.805374   248A      3.805496  
     249A      3.900540   250A      3.900671   251A      4.050492  
     252A      4.050617   253A      4.142463   254A      4.142587  
     255A      4.310078   256A      4.310216  

    Final Occupation by Irrep:
              A 
    DOCC [    32 ]

  @DF-RHF Final Energy:  -455.68818099643244

   => Energetics <=

    Nuclear Repulsion Energy =            267.1324413988232322
    One-Electron Energy =               -1152.7801115655290687
    Two-Electron Energy =                 429.9594891702734571
    Total Energy =                       -455.6881809964324361

Computation Completed


Properties will be evaluated at   0.000000,   0.000000,   0.000000 [a0]

Properties computed using the SCF density matrix

  Nuclear Dipole Moment: [e a0]
     X:  -751.7562      Y:   499.6135      Z: -1095.6922

  Electronic Dipole Moment: [e a0]
     X:   751.7562      Y:  -499.6135      Z:  1095.5255

  Dipole Moment: [e a0]
     X:    -0.0001      Y:     0.0000      Z:    -0.1666     Total:     0.1666

  Dipole Moment: [D]
     X:    -0.0002      Y:     0.0000      Z:    -0.4235     Total:     0.4235


*** tstop() called on ds1 at Wed Sep  1 14:24:32 2021
Module time:
	user time   =      14.33 seconds =       0.24 minutes
	system time =       0.43 seconds =       0.01 minutes
	total time  =          3 seconds =       0.05 minutes
Total time:
	user time   =      14.33 seconds =       0.24 minutes
	system time =       0.43 seconds =       0.01 minutes
	total time  =          3 seconds =       0.05 minutes

  //>>>>>>>>>>>>>>>>>>>>>>>>>>>>>>>>>>>//
  //            Monomer A HF           //
  //<<<<<<<<<<<<<<<<<<<<<<<<<<<<<<<<<<<//


*** tstart() called on ds1
*** at Wed Sep  1 14:24:32 2021

   => Loading Basis Set <=

    Name: AUG-CC-PVDZ
    Role: ORBITAL
    Keyword: BASIS
    atoms 1-2, 9-10  entry O          line   254 file /theoryfs2/ds/csargent/miniconda3/envs/cle/share/psi4/basis/aug-cc-pvdz.gbs 
    atoms 3-6, 11-14 entry H          line    40 file /theoryfs2/ds/csargent/miniconda3/envs/cle/share/psi4/basis/aug-cc-pvdz.gbs 
    atoms 7-8, 15-16 entry C          line   182 file /theoryfs2/ds/csargent/miniconda3/envs/cle/share/psi4/basis/aug-cc-pvdz.gbs 


         ---------------------------------------------------------
                                   SCF
               by Justin Turney, Rob Parrish, Andy Simmonett
                          and Daniel G. A. Smith
                              RHF Reference
                        6 Threads,   6675 MiB Core
         ---------------------------------------------------------

  ==> Geometry <==

    Molecular point group: c1
    Full point group: C1

    Geometry (in Bohr), charge = 0, multiplicity = 1:

       Center              X                  Y                   Z               Mass       
    ------------   -----------------  -----------------  -----------------  -----------------
         O           -5.531022370000     2.939402900000     1.977626240000    15.994914619570
         O           -2.407088860000     0.908177340000     0.049059090000    15.994914619570
         H           -0.503048870000     1.375792050000     4.638809080000     1.007825032230
         H            0.000000000000     4.251042850000     3.090722380000     1.007825032230
         H           -2.389482150000     4.019167790000     5.401950410000     1.007825032230
         H           -3.747714110000     0.471479300000    -1.215575120000     1.007825032230
         C           -1.418597820000     2.985005000000     3.844051900000    12.000000000000
         C           -3.322637810000     2.286288140000     1.912214130000    12.000000000000
      Gh(O)         -17.961360050000    12.673518120000   -36.179440220000    15.994914619570
      Gh(O)         -21.085293560000    14.704743690000   -38.108007380000    15.994914619570
      Gh(H)         -22.989333540000    14.237128980000   -33.518257390000     1.007825032230
      Gh(H)         -23.492382420000    11.361878170000   -35.066344080000     1.007825032230
      Gh(H)         -21.102900270000    11.593753240000   -32.755116060000     1.007825032230
      Gh(H)         -19.744668310000    15.141441730000   -39.372641580000     1.007825032230
      Gh(C)         -22.073784590000    12.627916030000   -34.313014570000    12.000000000000
      Gh(C)         -20.169744600000    13.326632890000   -36.244852340000    12.000000000000

  Running in c1 symmetry.

  Rotational constants: A =      0.03985  B =      0.00052  C =      0.00052 [cm^-1]
  Rotational constants: A =   1194.79619  B =     15.71256  C =     15.54362 [MHz]
  Nuclear repulsion =  121.748430210971620

  Charge       = 0
  Multiplicity = 1
  Electrons    = 32
  Nalpha       = 16
  Nbeta        = 16

  ==> Algorithm <==

  SCF Algorithm Type is DF.
  DIIS enabled.
  MOM disabled.
  Fractional occupation disabled.
  Guess Type is SAD.
  Energy threshold   = 1.00e-10
  Density threshold  = 1.00e-10
  Integral threshold = 1.00e-12

  ==> Primary Basis <==

  Basis Set: AUG-CC-PVDZ
    Blend: AUG-CC-PVDZ
    Number of shells: 112
    Number of basis functions: 256
    Number of Cartesian functions: 272
    Spherical Harmonics?: true
    Max angular momentum: 2

   => Loading Basis Set <=

    Name: (AUG-CC-PVDZ AUX)
    Role: JKFIT
    Keyword: DF_BASIS_SCF
    atoms 1-2, 9-10  entry O          line   270 file /theoryfs2/ds/csargent/miniconda3/envs/cle/share/psi4/basis/aug-cc-pvdz-jkfit.gbs 
    atoms 3-6, 11-14 entry H          line    70 file /theoryfs2/ds/csargent/miniconda3/envs/cle/share/psi4/basis/aug-cc-pvdz-jkfit.gbs 
    atoms 7-8, 15-16 entry C          line   154 file /theoryfs2/ds/csargent/miniconda3/envs/cle/share/psi4/basis/aug-cc-pvdz-jkfit.gbs 

  ==> Integral Setup <==

  ==> DiskDFJK: Density-Fitted J/K Matrices <==

    J tasked:                  Yes
    K tasked:                  Yes
    wK tasked:                  No
    OpenMP threads:              6
    Integrals threads:           6
    Memory [MiB]:             5006
    Algorithm:                Core
    Integral Cache:           LOAD
    Schwarz Cutoff:          1E-12
    Fitting Condition:       1E-10

   => Auxiliary Basis Set <=

  Basis Set: (AUG-CC-PVDZ AUX)
    Blend: AUG-CC-PVDZ-JKFIT
    Number of shells: 320
    Number of basis functions: 944
    Number of Cartesian functions: 1088
    Spherical Harmonics?: true
    Max angular momentum: 3

  Minimum eigenvalue in the overlap matrix is 1.0277546746E-04.
  Reciprocal condition number of the overlap matrix is 9.6539168442E-06.
    Using symmetric orthogonalization.

  ==> Pre-Iterations <==

  SCF Guess: Superposition of Atomic Densities via on-the-fly atomic UHF (no occupation information).

   -------------------------
    Irrep   Nso     Nmo    
   -------------------------
     A        256     256 
   -------------------------
    Total     256     256
   -------------------------

  ==> Iterations <==

                           Total Energy        Delta E     RMS |[F,P]|

   @DF-RHF iter SAD:  -226.98992942870186   -2.26990e+02   0.00000e+00 
   @DF-RHF iter   1:  -227.68091168152247   -6.90982e-01   2.28211e-03 DIIS
   @DF-RHF iter   2:  -227.80091445449617   -1.20003e-01   1.32478e-03 DIIS
   @DF-RHF iter   3:  -227.84131987373908   -4.04054e-02   2.33581e-04 DIIS
   @DF-RHF iter   4:  -227.84355633729146   -2.23646e-03   1.03339e-04 DIIS
   @DF-RHF iter   5:  -227.84403723829760   -4.80901e-04   2.42136e-05 DIIS
   @DF-RHF iter   6:  -227.84407440629539   -3.71680e-05   1.17797e-05 DIIS
   @DF-RHF iter   7:  -227.84408419442113   -9.78813e-06   3.84272e-06 DIIS
   @DF-RHF iter   8:  -227.84408577600826   -1.58159e-06   1.01577e-06 DIIS
   @DF-RHF iter   9:  -227.84408589265860   -1.16650e-07   2.12953e-07 DIIS
   @DF-RHF iter  10:  -227.84408589647904   -3.82045e-09   5.61608e-08 DIIS
   @DF-RHF iter  11:  -227.84408589668254   -2.03499e-10   1.80147e-08 DIIS
   @DF-RHF iter  12:  -227.84408589670457   -2.20268e-11   4.26466e-09 DIIS
   @DF-RHF iter  13:  -227.84408589670599   -1.42109e-12   8.93569e-10 DIIS
   @DF-RHF iter  14:  -227.84408589670591    8.52651e-14   2.86710e-10 DIIS
   @DF-RHF iter  15:  -227.84408589670585    5.68434e-14   1.08058e-10 DIIS
   @DF-RHF iter  16:  -227.84408589670613   -2.84217e-13   2.86095e-11 DIIS
  Energy and wave function converged.


  ==> Post-Iterations <==

    Orbital Energies [Eh]
    ---------------------

    Doubly Occupied:                                                      

       1A    -20.629476     2A    -20.552804     3A    -11.396108  
       4A    -11.250979     5A     -1.475853     6A     -1.357486  
       7A     -1.032999     8A     -0.837930     9A     -0.703065  
      10A     -0.688465    11A     -0.657749    12A     -0.576538  
      13A     -0.569697    14A     -0.561403    15A     -0.475343  
      16A     -0.452434  

    Virtual:                                                              

      17A      0.024916    18A      0.032214    19A      0.045627  
      20A      0.046976    21A      0.055084    22A      0.055712  
      23A      0.056661    24A      0.064645    25A      0.085540  
      26A      0.098769    27A      0.104735    28A      0.112335  
      29A      0.117323    30A      0.117545    31A      0.117857  
      32A      0.140530    33A      0.140545    34A      0.141520  
      35A      0.147017    36A      0.151976    37A      0.156356  
      38A      0.164577    39A      0.171320    40A      0.176511  
      41A      0.196303    42A      0.205754    43A      0.209237  
      44A      0.214731    45A      0.226424    46A      0.233376  
      47A      0.234963    48A      0.244178    49A      0.260391  
      50A      0.264943    51A      0.270849    52A      0.276798  
      53A      0.285577    54A      0.290295    55A      0.295802  
      56A      0.319834    57A      0.322781    58A      0.332440  
      59A      0.336407    60A      0.347275    61A      0.369611  
      62A      0.370652    63A      0.378870    64A      0.394119  
      65A      0.399460    66A      0.401429    67A      0.409946  
      68A      0.426690    69A      0.431305    70A      0.438075  
      71A      0.438218    72A      0.442006    73A      0.460584  
      74A      0.475555    75A      0.490379    76A      0.492357  
      77A      0.497440    78A      0.516672    79A      0.524763  
      80A      0.537262    81A      0.541901    82A      0.543741  
      83A      0.553487    84A      0.559793    85A      0.569740  
      86A      0.583791    87A      0.586970    88A      0.602101  
      89A      0.616463    90A      0.618231    91A      0.636405  
      92A      0.637216    93A      0.640311    94A      0.649301  
      95A      0.666705    96A      0.675283    97A      0.684210  
      98A      0.690109    99A      0.697190   100A      0.700980  
     101A      0.703571   102A      0.728291   103A      0.733289  
     104A      0.742748   105A      0.753798   106A      0.760487  
     107A      0.787312   108A      0.798460   109A      0.815944  
     110A      0.820273   111A      0.848397   112A      0.853581  
     113A      0.876833   114A      0.888362   115A      0.896562  
     116A      0.912403   117A      0.947769   118A      0.949697  
     119A      0.954375   120A      0.958274   121A      0.976058  
     122A      0.983144   123A      1.038105   124A      1.041547  
     125A      1.045340   126A      1.088819   127A      1.101839  
     128A      1.106565   129A      1.118367   130A      1.157520  
     131A      1.162704   132A      1.172141   133A      1.176359  
     134A      1.191020   135A      1.236033   136A      1.260773  
     137A      1.270368   138A      1.272187   139A      1.319230  
     140A      1.329709   141A      1.358181   142A      1.384222  
     143A      1.390440   144A      1.396390   145A      1.412451  
     146A      1.434800   147A      1.458482   148A      1.462795  
     149A      1.467781   150A      1.467976   151A      1.469658  
     152A      1.537681   153A      1.546014   154A      1.569432  
     155A      1.635048   156A      1.649915   157A      1.683850  
     158A      1.715101   159A      1.717613   160A      1.755800  
     161A      1.772884   162A      1.800121   163A      1.848039  
     164A      1.865503   165A      1.883070   166A      1.883811  
     167A      1.937213   168A      1.966454   169A      1.979453  
     170A      2.026298   171A      2.037642   172A      2.070957  
     173A      2.122848   174A      2.172049   175A      2.193137  
     176A      2.244771   177A      2.251094   178A      2.253643  
     179A      2.265151   180A      2.272354   181A      2.274121  
     182A      2.303184   183A      2.312246   184A      2.336801  
     185A      2.339326   186A      2.362330   187A      2.376724  
     188A      2.379604   189A      2.430330   190A      2.438663  
     191A      2.467341   192A      2.506022   193A      2.536303  
     194A      2.586177   195A      2.623585   196A      2.652307  
     197A      2.664880   198A      2.698536   199A      2.754572  
     200A      2.783681   201A      2.786420   202A      2.824434  
     203A      2.833647   204A      2.886121   205A      2.916206  
     206A      2.974291   207A      3.001602   208A      3.016316  
     209A      3.042942   210A      3.178935   211A      3.182673  
     212A      3.278845   213A      3.310946   214A      3.346124  
     215A      3.357133   216A      3.431751   217A      3.486971  
     218A      3.663039   219A      3.666705   220A      3.690423  
     221A      3.736441   222A      3.740336   223A      3.759662  
     224A      3.790324   225A      3.805251   226A      3.900417  
     227A      4.026375   228A      4.050368   229A      4.142340  
     230A      4.153943   231A      4.309953   232A      4.505224  
     233A      4.617172   234A      4.725221   235A      4.926197  
     236A      4.970037   237A      4.978292   238A      5.001956  
     239A      5.017153   240A      5.034030   241A      5.052793  
     242A      5.222308   243A      5.244507   244A      5.615516  
     245A      5.661517   246A      5.791628   247A      5.869343  
     248A      6.053103   249A      6.229160   250A      6.521088  
     251A      6.790579   252A      7.093273   253A     18.346573  
     254A     18.941072   255A     33.525845   256A     33.563885  

    Final Occupation by Irrep:
              A 
    DOCC [    16 ]

  @DF-RHF Final Energy:  -227.84408589670613

   => Energetics <=

    Nuclear Repulsion Energy =            121.7484302109716197
    One-Electron Energy =                -552.7483714465298590
    Two-Electron Energy =                 203.1558553388521204
    Total Energy =                       -227.8440858967061331

Computation Completed


Properties will be evaluated at   0.000000,   0.000000,   0.000000 [a0]

Properties computed using the SCF density matrix

  Nuclear Dipole Moment: [e a0]
     X:   -98.5925      Y:    72.5259      Z:    62.6670

  Electronic Dipole Moment: [e a0]
     X:    99.4206      Y:   -72.8088      Z:   -62.7502

  Dipole Moment: [e a0]
     X:     0.8281      Y:    -0.2829      Z:    -0.0832     Total:     0.8790

  Dipole Moment: [D]
     X:     2.1048      Y:    -0.7191      Z:    -0.2116     Total:     2.2342


*** tstop() called on ds1 at Wed Sep  1 14:24:34 2021
Module time:
	user time   =      10.26 seconds =       0.17 minutes
	system time =       0.18 seconds =       0.00 minutes
	total time  =          2 seconds =       0.03 minutes
Total time:
	user time   =      24.79 seconds =       0.41 minutes
	system time =       0.61 seconds =       0.01 minutes
	total time  =          5 seconds =       0.08 minutes

  //>>>>>>>>>>>>>>>>>>>>>>>>>>>>>>>>>>>//
  //            Monomer B HF           //
  //<<<<<<<<<<<<<<<<<<<<<<<<<<<<<<<<<<<//


*** tstart() called on ds1
*** at Wed Sep  1 14:24:34 2021

   => Loading Basis Set <=

    Name: AUG-CC-PVDZ
    Role: ORBITAL
    Keyword: BASIS
    atoms 1-2, 9-10  entry O          line   254 file /theoryfs2/ds/csargent/miniconda3/envs/cle/share/psi4/basis/aug-cc-pvdz.gbs 
    atoms 3-6, 11-14 entry H          line    40 file /theoryfs2/ds/csargent/miniconda3/envs/cle/share/psi4/basis/aug-cc-pvdz.gbs 
    atoms 7-8, 15-16 entry C          line   182 file /theoryfs2/ds/csargent/miniconda3/envs/cle/share/psi4/basis/aug-cc-pvdz.gbs 


         ---------------------------------------------------------
                                   SCF
               by Justin Turney, Rob Parrish, Andy Simmonett
                          and Daniel G. A. Smith
                              RHF Reference
                        6 Threads,   6675 MiB Core
         ---------------------------------------------------------

  ==> Geometry <==

    Molecular point group: c1
    Full point group: C1

    Geometry (in Bohr), charge = 0, multiplicity = 1:

       Center              X                  Y                   Z               Mass       
    ------------   -----------------  -----------------  -----------------  -----------------
      Gh(O)          -5.531022370000     2.939402900000     1.977626240000    15.994914619570
      Gh(O)          -2.407088860000     0.908177340000     0.049059090000    15.994914619570
      Gh(H)          -0.503048870000     1.375792050000     4.638809080000     1.007825032230
      Gh(H)           0.000000000000     4.251042850000     3.090722380000     1.007825032230
      Gh(H)          -2.389482150000     4.019167790000     5.401950410000     1.007825032230
      Gh(H)          -3.747714110000     0.471479300000    -1.215575120000     1.007825032230
      Gh(C)          -1.418597820000     2.985005000000     3.844051900000    12.000000000000
      Gh(C)          -3.322637810000     2.286288140000     1.912214130000    12.000000000000
         O          -17.961360050000    12.673518120000   -36.179440220000    15.994914619570
         O          -21.085293560000    14.704743690000   -38.108007380000    15.994914619570
         H          -22.989333540000    14.237128980000   -33.518257390000     1.007825032230
         H          -23.492382420000    11.361878170000   -35.066344080000     1.007825032230
         H          -21.102900270000    11.593753240000   -32.755116060000     1.007825032230
         H          -19.744668310000    15.141441730000   -39.372641580000     1.007825032230
         C          -22.073784590000    12.627916030000   -34.313014570000    12.000000000000
         C          -20.169744600000    13.326632890000   -36.244852340000    12.000000000000

  Running in c1 symmetry.

  Rotational constants: A =      0.03985  B =      0.00052  C =      0.00052 [cm^-1]
  Rotational constants: A =   1194.79619  B =     15.71256  C =     15.54362 [MHz]
  Nuclear repulsion =  121.748430252431348

  Charge       = 0
  Multiplicity = 1
  Electrons    = 32
  Nalpha       = 16
  Nbeta        = 16

  ==> Algorithm <==

  SCF Algorithm Type is DF.
  DIIS enabled.
  MOM disabled.
  Fractional occupation disabled.
  Guess Type is SAD.
  Energy threshold   = 1.00e-10
  Density threshold  = 1.00e-10
  Integral threshold = 1.00e-12

  ==> Primary Basis <==

  Basis Set: AUG-CC-PVDZ
    Blend: AUG-CC-PVDZ
    Number of shells: 112
    Number of basis functions: 256
    Number of Cartesian functions: 272
    Spherical Harmonics?: true
    Max angular momentum: 2

   => Loading Basis Set <=

    Name: (AUG-CC-PVDZ AUX)
    Role: JKFIT
    Keyword: DF_BASIS_SCF
    atoms 1-2, 9-10  entry O          line   270 file /theoryfs2/ds/csargent/miniconda3/envs/cle/share/psi4/basis/aug-cc-pvdz-jkfit.gbs 
    atoms 3-6, 11-14 entry H          line    70 file /theoryfs2/ds/csargent/miniconda3/envs/cle/share/psi4/basis/aug-cc-pvdz-jkfit.gbs 
    atoms 7-8, 15-16 entry C          line   154 file /theoryfs2/ds/csargent/miniconda3/envs/cle/share/psi4/basis/aug-cc-pvdz-jkfit.gbs 

  ==> Integral Setup <==

  ==> DiskDFJK: Density-Fitted J/K Matrices <==

    J tasked:                  Yes
    K tasked:                  Yes
    wK tasked:                  No
    OpenMP threads:              6
    Integrals threads:           6
    Memory [MiB]:             5006
    Algorithm:                Core
    Integral Cache:           LOAD
    Schwarz Cutoff:          1E-12
    Fitting Condition:       1E-10

   => Auxiliary Basis Set <=

  Basis Set: (AUG-CC-PVDZ AUX)
    Blend: AUG-CC-PVDZ-JKFIT
    Number of shells: 320
    Number of basis functions: 944
    Number of Cartesian functions: 1088
    Spherical Harmonics?: true
    Max angular momentum: 3

  Minimum eigenvalue in the overlap matrix is 1.0277546746E-04.
  Reciprocal condition number of the overlap matrix is 9.6539168442E-06.
    Using symmetric orthogonalization.

  ==> Pre-Iterations <==

  SCF Guess: Superposition of Atomic Densities via on-the-fly atomic UHF (no occupation information).

   -------------------------
    Irrep   Nso     Nmo    
   -------------------------
     A        256     256 
   -------------------------
    Total     256     256
   -------------------------

  ==> Iterations <==

                           Total Energy        Delta E     RMS |[F,P]|

   @DF-RHF iter SAD:  -226.98992943387651   -2.26990e+02   0.00000e+00 
   @DF-RHF iter   1:  -227.68091168130047   -6.90982e-01   2.28211e-03 DIIS
   @DF-RHF iter   2:  -227.80091445446695   -1.20003e-01   1.32478e-03 DIIS
   @DF-RHF iter   3:  -227.84131987343241   -4.04054e-02   2.33581e-04 DIIS
   @DF-RHF iter   4:  -227.84355633695685   -2.23646e-03   1.03339e-04 DIIS
   @DF-RHF iter   5:  -227.84403723795691   -4.80901e-04   2.42136e-05 DIIS
   @DF-RHF iter   6:  -227.84407440595436   -3.71680e-05   1.17797e-05 DIIS
   @DF-RHF iter   7:  -227.84408419408024   -9.78813e-06   3.84272e-06 DIIS
   @DF-RHF iter   8:  -227.84408577566654   -1.58159e-06   1.01577e-06 DIIS
   @DF-RHF iter   9:  -227.84408589231691   -1.16650e-07   2.12953e-07 DIIS
   @DF-RHF iter  10:  -227.84408589613753   -3.82062e-09   5.61608e-08 DIIS
   @DF-RHF iter  11:  -227.84408589634123   -2.03698e-10   1.80147e-08 DIIS
   @DF-RHF iter  12:  -227.84408589636320   -2.19700e-11   4.26466e-09 DIIS
   @DF-RHF iter  13:  -227.84408589636482   -1.62004e-12   8.93569e-10 DIIS
   @DF-RHF iter  14:  -227.84408589636490   -8.52651e-14   2.86710e-10 DIIS
   @DF-RHF iter  15:  -227.84408589636470    1.98952e-13   1.08058e-10 DIIS
   @DF-RHF iter  16:  -227.84408589636476   -5.68434e-14   2.86095e-11 DIIS
  Energy and wave function converged.


  ==> Post-Iterations <==

    Orbital Energies [Eh]
    ---------------------

    Doubly Occupied:                                                      

       1A    -20.629476     2A    -20.552804     3A    -11.396108  
       4A    -11.250979     5A     -1.475853     6A     -1.357486  
       7A     -1.032999     8A     -0.837930     9A     -0.703065  
      10A     -0.688465    11A     -0.657749    12A     -0.576538  
      13A     -0.569697    14A     -0.561403    15A     -0.475343  
      16A     -0.452434  

    Virtual:                                                              

      17A      0.025016    18A      0.032214    19A      0.045627  
      20A      0.047120    21A      0.055084    22A      0.055785  
      23A      0.056730    24A      0.064645    25A      0.085661  
      26A      0.098769    27A      0.104853    28A      0.112437  
      29A      0.117323    30A      0.117587    31A      0.117857  
      32A      0.140545    33A      0.140631    34A      0.141615  
      35A      0.147077    36A      0.151976    37A      0.156356  
      38A      0.164577    39A      0.171320    40A      0.176623  
      41A      0.196303    42A      0.205893    43A      0.209237  
      44A      0.214866    45A      0.226560    46A      0.233376  
      47A      0.234963    48A      0.244298    49A      0.260513  
      50A      0.265073    51A      0.270849    52A      0.276923  
      53A      0.285701    54A      0.290295    55A      0.295802  
      56A      0.319834    57A      0.322781    58A      0.332528  
      59A      0.336476    60A      0.347275    61A      0.369679  
      62A      0.370652    63A      0.378870    64A      0.394119  
      65A      0.399528    66A      0.401429    67A      0.410020  
      68A      0.426690    69A      0.431391    70A      0.438161  
      71A      0.438218    72A      0.442006    73A      0.460739  
      74A      0.475555    75A      0.490499    76A      0.492357  
      77A      0.497561    78A      0.516789    79A      0.524763  
      80A      0.537262    81A      0.542049    82A      0.543820  
      83A      0.553487    84A      0.559892    85A      0.569740  
      86A      0.583791    87A      0.587055    88A      0.602101  
      89A      0.616586    90A      0.618231    91A      0.636502  
      92A      0.637327    93A      0.640311    94A      0.649301  
      95A      0.666705    96A      0.675394    97A      0.684210  
      98A      0.690195    99A      0.697190   100A      0.701065  
     101A      0.703571   102A      0.728361   103A      0.733289  
     104A      0.742748   105A      0.753894   106A      0.760559  
     107A      0.787405   108A      0.798460   109A      0.816018  
     110A      0.820347   111A      0.848482   112A      0.853581  
     113A      0.876833   114A      0.888439   115A      0.896667  
     116A      0.912403   117A      0.947864   118A      0.949697  
     119A      0.954375   120A      0.958372   121A      0.976163  
     122A      0.983144   123A      1.038220   124A      1.041547  
     125A      1.045459   126A      1.088819   127A      1.101839  
     128A      1.106674   129A      1.118367   130A      1.157520  
     131A      1.162831   132A      1.172141   133A      1.176359  
     134A      1.191152   135A      1.236033   136A      1.260911  
     137A      1.270504   138A      1.272187   139A      1.319230  
     140A      1.329840   141A      1.358181   142A      1.384355  
     143A      1.390440   144A      1.396528   145A      1.412451  
     146A      1.434922   147A      1.458629   148A      1.462795  
     149A      1.467917   150A      1.467976   151A      1.469795  
     152A      1.537811   153A      1.546014   154A      1.569564  
     155A      1.635048   156A      1.649915   157A      1.683978  
     158A      1.715101   159A      1.717736   160A      1.755800  
     161A      1.772884   162A      1.800253   163A      1.848039  
     164A      1.865503   165A      1.883129   166A      1.883811  
     167A      1.937288   168A      1.966454   169A      1.979453  
     170A      2.026298   171A      2.037642   172A      2.071038  
     173A      2.122848   174A      2.172049   175A      2.193137  
     176A      2.244771   177A      2.251156   178A      2.253643  
     179A      2.265219   180A      2.272354   181A      2.274256  
     182A      2.303261   183A      2.312246   184A      2.336866  
     185A      2.339392   186A      2.362422   187A      2.376832  
     188A      2.379604   189A      2.430330   190A      2.438663  
     191A      2.467462   192A      2.506168   193A      2.536303  
     194A      2.586284   195A      2.623585   196A      2.652307  
     197A      2.664995   198A      2.698618   199A      2.754649  
     200A      2.783681   201A      2.786498   202A      2.824513  
     203A      2.833647   204A      2.886121   205A      2.916320  
     206A      2.974291   207A      3.001602   208A      3.016316  
     209A      3.043037   210A      3.178935   211A      3.182759  
     212A      3.278927   213A      3.311037   214A      3.346124  
     215A      3.357219   216A      3.431852   217A      3.487047  
     218A      3.663141   219A      3.666705   220A      3.690423  
     221A      3.736441   222A      3.740473   223A      3.759662  
     224A      3.790324   225A      3.805251   226A      3.900417  
     227A      4.026490   228A      4.050368   229A      4.142340  
     230A      4.154099   231A      4.309953   232A      4.505351  
     233A      4.617308   234A      4.725311   235A      4.926331  
     236A      4.970165   237A      4.978437   238A      5.002086  
     239A      5.017289   240A      5.034172   241A      5.052875  
     242A      5.222414   243A      5.244598   244A      5.615668  
     245A      5.661658   246A      5.791773   247A      5.869468  
     248A      6.053234   249A      6.229285   250A      6.521237  
     251A      6.790724   252A      7.093407   253A     18.346663  
     254A     18.941168   255A     33.525970   256A     33.564039  

    Final Occupation by Irrep:
              A 
    DOCC [    16 ]

  @DF-RHF Final Energy:  -227.84408589636476

   => Energetics <=

    Nuclear Repulsion Energy =            121.7484302524313478
    One-Electron Energy =                -552.7483715152029617
    Two-Electron Energy =                 203.1558553664068256
    Total Energy =                       -227.8440858963647599

Computation Completed


Properties will be evaluated at   0.000000,   0.000000,   0.000000 [a0]

Properties computed using the SCF density matrix

  Nuclear Dipole Moment: [e a0]
     X:  -653.1637      Y:   427.0876      Z: -1158.3591

  Electronic Dipole Moment: [e a0]
     X:   652.3356      Y:  -426.8047      Z:  1158.2759

  Dipole Moment: [e a0]
     X:    -0.8281      Y:     0.2829      Z:    -0.0832     Total:     0.8790

  Dipole Moment: [D]
     X:    -2.1048      Y:     0.7191      Z:    -0.2116     Total:     2.2342


*** tstop() called on ds1 at Wed Sep  1 14:24:37 2021
Module time:
	user time   =      10.41 seconds =       0.17 minutes
	system time =       0.17 seconds =       0.00 minutes
	total time  =          3 seconds =       0.05 minutes
Total time:
	user time   =      35.22 seconds =       0.59 minutes
	system time =       0.78 seconds =       0.01 minutes
	total time  =          8 seconds =       0.13 minutes
  Constructing Basis Sets for SAPT...

   => Loading Basis Set <=

    Name: (AUG-CC-PVDZ AUX)
    Role: RIFIT
    Keyword: DF_BASIS_SAPT
    atoms 1-2, 9-10  entry O          line   204 file /theoryfs2/ds/csargent/miniconda3/envs/cle/share/psi4/basis/aug-cc-pvdz-ri.gbs 
    atoms 3-6, 11-14 entry H          line    30 file /theoryfs2/ds/csargent/miniconda3/envs/cle/share/psi4/basis/aug-cc-pvdz-ri.gbs 
    atoms 7-8, 15-16 entry C          line   112 file /theoryfs2/ds/csargent/miniconda3/envs/cle/share/psi4/basis/aug-cc-pvdz-ri.gbs 


  //>>>>>>>>>>>>>>>>>>>>>>>>>>>>>>>>>>>//
  //               SAPT0               //
  //<<<<<<<<<<<<<<<<<<<<<<<<<<<<<<<<<<<//


*** tstart() called on ds1
*** at Wed Sep  1 14:24:37 2021

        SAPT0  
    Ed Hohenstein
     6 June 2009

      Orbital Information
  --------------------------
    NSO        =       256
    NMO        =       256
    NRI        =       760
    NOCC A     =        16
    NOCC B     =        16
    FOCC A     =         4
    FOCC B     =         4
    NVIR A     =       240
    NVIR B     =       240

    Elst10,r            =    -0.000009183736 [Eh]
    Exch10              =    -0.000000000000 [Eh]
    Exch10 (S^2)        =    -0.000000000000 [Eh]

    Iter     Energy [mEh]          dE [mEh]         Residual      Time [s]
       1      -0.00000369       0.000003686       0.016213091             0
       2      -0.00000377       0.000000080       0.006486183             0
       3      -0.00000409       0.000000322       0.002347323             0
       4      -0.00000416       0.000000071       0.000545543             1
       5      -0.00000414      -0.000000014       0.000303894             1
       6      -0.00000414      -0.000000005       0.000094030             1
       7      -0.00000414       0.000000002       0.000027841             1
       8      -0.00000414       0.000000000       0.000006336             1
       9      -0.00000414      -0.000000000       0.000001934             1
      10      -0.00000414      -0.000000000       0.000000461             1

    CHF Iterations converged


    Iter     Energy [mEh]          dE [mEh]         Residual      Time [s]
       1      -0.00000252       0.000002522       0.013168830             0
       2      -0.00000269       0.000000164       0.005865530             0
       3      -0.00000296       0.000000272       0.001861794             0
       4      -0.00000299       0.000000035       0.000574000             0
       5      -0.00000298      -0.000000015       0.000228800             0
       6      -0.00000298      -0.000000001       0.000084997             0
       7      -0.00000298       0.000000001       0.000026517             1
       8      -0.00000298       0.000000000       0.000006347             1
       9      -0.00000298      -0.000000000       0.000001854             1
      10      -0.00000298      -0.000000000       0.000000515             1

    CHF Iterations converged

    Ind20,r (A<-B)      =    -0.000000004141 [Eh]
    Ind20,r (B<-A)      =    -0.000000002978 [Eh]
    Ind20,r             =    -0.000000007118 [Eh]
    Exch-Ind20,r (A<-B) =     0.000000000000 [Eh]
    Exch-Ind20,r (B<-A) =     0.000000000000 [Eh]
    Exch-Ind20,r        =     0.000000000000 [Eh]
    Disp20              =    -0.000000086336 [Eh]
    Disp20 (SS)         =    -0.000000043168 [Eh]
    Disp20 (OS)         =    -0.000000043168 [Eh]
    Exch-Disp20         =     0.000000000000 [Eh]
    Exch-Disp20 (SS)    =     0.000000000000 [Eh]
    Exch-Disp20 (OS)    =     0.000000000000 [Eh]

    SAPT Results 
  --------------------------------------------------------------------------------------------------------
    Electrostatics                 -0.00918374 [mEh]      -0.00576288 [kcal/mol]      -0.02411189 [kJ/mol]
      Elst10,r                     -0.00918374 [mEh]      -0.00576288 [kcal/mol]      -0.02411189 [kJ/mol]

    Exchange                       -0.00000000 [mEh]      -0.00000000 [kcal/mol]      -0.00000000 [kJ/mol]
      Exch10                       -0.00000000 [mEh]      -0.00000000 [kcal/mol]      -0.00000000 [kJ/mol]
      Exch10(S^2)                  -0.00000000 [mEh]      -0.00000000 [kcal/mol]      -0.00000000 [kJ/mol]

    Induction                      -0.00001963 [mEh]      -0.00001232 [kcal/mol]      -0.00005153 [kJ/mol]
      Ind20,r                      -0.00000712 [mEh]      -0.00000447 [kcal/mol]      -0.00001869 [kJ/mol]
      Exch-Ind20,r                  0.00000000 [mEh]       0.00000000 [kcal/mol]       0.00000000 [kJ/mol]
      delta HF,r (2)               -0.00001251 [mEh]      -0.00000785 [kcal/mol]      -0.00003284 [kJ/mol]

    Dispersion                     -0.00008634 [mEh]      -0.00005418 [kcal/mol]      -0.00022667 [kJ/mol]
      Disp20                       -0.00008634 [mEh]      -0.00005418 [kcal/mol]      -0.00022667 [kJ/mol]
      Exch-Disp20                   0.00000000 [mEh]       0.00000000 [kcal/mol]       0.00000000 [kJ/mol]
      Disp20 (SS)                  -0.00004317 [mEh]      -0.00002709 [kcal/mol]      -0.00011334 [kJ/mol]
      Disp20 (OS)                  -0.00004317 [mEh]      -0.00002709 [kcal/mol]      -0.00011334 [kJ/mol]
      Exch-Disp20 (SS)              0.00000000 [mEh]       0.00000000 [kcal/mol]       0.00000000 [kJ/mol]
      Exch-Disp20 (OS)              0.00000000 [mEh]       0.00000000 [kcal/mol]       0.00000000 [kJ/mol]

  Total HF                         -0.00920336 [mEh]      -0.00577520 [kcal/mol]      -0.02416342 [kJ/mol]
  Total SAPT0                      -0.00928970 [mEh]      -0.00582937 [kcal/mol]      -0.02439010 [kJ/mol]

  Special recipe for scaled SAPT0 (see Manual):
    Electrostatics sSAPT0          -0.00918374 [mEh]      -0.00576288 [kcal/mol]      -0.02411189 [kJ/mol]
    Exchange sSAPT0                -0.00000000 [mEh]      -0.00000000 [kcal/mol]      -0.00000000 [kJ/mol]
    Induction sSAPT0               -0.00001963 [mEh]      -0.00001232 [kcal/mol]      -0.00005153 [kJ/mol]
    Dispersion sSAPT0              -0.00008634 [mEh]      -0.00005418 [kcal/mol]      -0.00022667 [kJ/mol]
  Total sSAPT0                     -0.00928970 [mEh]      -0.00582937 [kcal/mol]      -0.02439010 [kJ/mol]
  --------------------------------------------------------------------------------------------------------

*** tstop() called on ds1 at Wed Sep  1 14:24:42 2021
Module time:
	user time   =      26.78 seconds =       0.45 minutes
	system time =       2.28 seconds =       0.04 minutes
	total time  =          5 seconds =       0.08 minutes
Total time:
	user time   =      62.55 seconds =       1.04 minutes
	system time =       3.07 seconds =       0.05 minutes
	total time  =         13 seconds =       0.22 minutes


Warning! sapt0 does not have an associated derived wavefunction.The returned wavefunction is the dimer SCF wavefunction.


    Psi4 stopped on: Wednesday, 01 September 2021 02:24PM
    Psi4 wall time for execution: 0:00:13.55

*** Psi4 exiting successfully. Buy a developer a beer!
