
    -----------------------------------------------------------------------
          Psi4: An Open-Source Ab Initio Electronic Structure Package
                               Psi4 1.4rc3 

                         Git: Rev {HEAD} 080dba6 


    D. G. A. Smith, L. A. Burns, A. C. Simmonett, R. M. Parrish,
    M. C. Schieber, R. Galvelis, P. Kraus, H. Kruse, R. Di Remigio,
    A. Alenaizan, A. M. James, S. Lehtola, J. P. Misiewicz, M. Scheurer,
    R. A. Shaw, J. B. Schriber, Y. Xie, Z. L. Glick, D. A. Sirianni,
    J. S. O'Brien, J. M. Waldrop, A. Kumar, E. G. Hohenstein,
    B. P. Pritchard, B. R. Brooks, H. F. Schaefer III, A. Yu. Sokolov,
    K. Patkowski, A. E. DePrince III, U. Bozkaya, R. A. King,
    F. A. Evangelista, J. M. Turney, T. D. Crawford, C. D. Sherrill,
    J. Chem. Phys. 152(18) 184108 (2020). https://doi.org/10.1063/5.0006002

                            Additional Code Authors
    E. T. Seidl, C. L. Janssen, E. F. Valeev, M. L. Leininger,
    J. F. Gonthier, R. M. Richard, H. R. McAlexander, M. Saitow, X. Wang,
    P. Verma, and M. H. Lechner

             Previous Authors, Complete List of Code Contributors,
                       and Citations for Specific Modules
    https://github.com/psi4/psi4/blob/master/codemeta.json
    https://github.com/psi4/psi4/graphs/contributors
    http://psicode.org/psi4manual/master/introduction.html#citing-psifour

    -----------------------------------------------------------------------


    Psi4 started on: Wednesday, 01 September 2021 02:01PM

    Process ID: 20707
    Host:       ds1
    PSIDATADIR: /theoryfs2/ds/csargent/miniconda3/envs/cle/share/psi4
    Memory:     500.0 MiB
    Threads:    6
    
  ==> Input File <==

--------------------------------------------------------------------------
# PSI4 file produced by CrystaLattE

# Generated from:               acetic_acid.xyz
# Psithon input for N-mer:      2mer-0+108
# Number of atoms per monomer:  [8, 8]
# Number of replicas:           2
# COM priority:                 8.906980868806e-05
# Minimum COM separations:      11.849 
# Separation priority:          1.959374573248e-04
# Minimum monomer separations:  9.111 
# Cutoff priority:              1.138037633542e-05
# Nuclear repulsion energy:     289.35923176655933

memory 7 GB

molecule Dimer_0_108 {
  O           -5.53102237       2.93940290       1.97762624 
  O           -2.40708886       0.90817734       0.04905909 
  H           -0.50304887       1.37579205       4.63880908 
  H            0.00000000       4.25104285       3.09072238 
  H           -2.38948215       4.01916779       5.40195041 
  H           -3.74771411       0.47147930      -1.21557512 
  C           -1.41859782       2.98500500       3.84405190 
  C           -3.32263781       2.28628814       1.91221413 
--
  O          -18.10724422      16.53810254      -8.92439275 
  O          -14.98331071      18.56932810     -10.85295990 
  H          -13.07927073      18.10171339      -6.26320991 
  H          -12.57622185      15.22646259      -7.81129661 
  H          -14.96570400      15.45833765      -5.50006858 
  H          -16.32393596      19.00602614     -12.11759411 
  C          -13.99481968      16.49250044      -7.05796709 
  C          -15.89885966      17.19121730      -8.98980486 
units = au
no_com
no_reorient
}

set {
  e_convergence 10
  d_convergence 10
  scf_type df
  mp2_type df
  cc_type df
  freeze_core true
}

energy('sapt0/aug-cc-pvdz')

--------------------------------------------------------------------------

  Memory set to   6.519 GiB by Python driver.

Scratch directory: /scratch/csargent/psi4.17562.33784/

Scratch directory: /scratch/csargent/psi4.17562.33784/

  //>>>>>>>>>>>>>>>>>>>>>>>>>>>>>>>>>>>//
  //              Dimer HF             //
  //<<<<<<<<<<<<<<<<<<<<<<<<<<<<<<<<<<<//


*** tstart() called on ds1
*** at Wed Sep  1 14:01:11 2021

   => Loading Basis Set <=

    Name: AUG-CC-PVDZ
    Role: ORBITAL
    Keyword: BASIS
    atoms 1-2, 9-10  entry O          line   254 file /theoryfs2/ds/csargent/miniconda3/envs/cle/share/psi4/basis/aug-cc-pvdz.gbs 
    atoms 3-6, 11-14 entry H          line    40 file /theoryfs2/ds/csargent/miniconda3/envs/cle/share/psi4/basis/aug-cc-pvdz.gbs 
    atoms 7-8, 15-16 entry C          line   182 file /theoryfs2/ds/csargent/miniconda3/envs/cle/share/psi4/basis/aug-cc-pvdz.gbs 


         ---------------------------------------------------------
                                   SCF
               by Justin Turney, Rob Parrish, Andy Simmonett
                          and Daniel G. A. Smith
                              RHF Reference
                        6 Threads,   6675 MiB Core
         ---------------------------------------------------------

  ==> Geometry <==

    Molecular point group: c1
    Full point group: C1

    Geometry (in Bohr), charge = 0, multiplicity = 1:

       Center              X                  Y                   Z               Mass       
    ------------   -----------------  -----------------  -----------------  -----------------
         O           -5.531022370000     2.939402900000     1.977626240000    15.994914619570
         O           -2.407088860000     0.908177340000     0.049059090000    15.994914619570
         H           -0.503048870000     1.375792050000     4.638809080000     1.007825032230
         H            0.000000000000     4.251042850000     3.090722380000     1.007825032230
         H           -2.389482150000     4.019167790000     5.401950410000     1.007825032230
         H           -3.747714110000     0.471479300000    -1.215575120000     1.007825032230
         C           -1.418597820000     2.985005000000     3.844051900000    12.000000000000
         C           -3.322637810000     2.286288140000     1.912214130000    12.000000000000
         O          -18.107244220000    16.538102540000    -8.924392750000    15.994914619570
         O          -14.983310710000    18.569328100000   -10.852959900000    15.994914619570
         H          -13.079270730000    18.101713390000    -6.263209910000     1.007825032230
         H          -12.576221850000    15.226462590000    -7.811296610000     1.007825032230
         H          -14.965704000000    15.458337650000    -5.500068580000     1.007825032230
         H          -16.323935960000    19.006026140000   -12.117594110000     1.007825032230
         C          -13.994819680000    16.492500440000    -7.057967090000    12.000000000000
         C          -15.898859660000    17.191217300000    -8.989804860000    12.000000000000

  Running in c1 symmetry.

  Rotational constants: A =      0.05651  B =      0.00156  C =      0.00154 [cm^-1]
  Rotational constants: A =   1694.12705  B =     46.83188  C =     46.08482 [MHz]
  Nuclear repulsion =  289.359231867017343

  Charge       = 0
  Multiplicity = 1
  Electrons    = 64
  Nalpha       = 32
  Nbeta        = 32

  ==> Algorithm <==

  SCF Algorithm Type is DF.
  DIIS enabled.
  MOM disabled.
  Fractional occupation disabled.
  Guess Type is SAD.
  Energy threshold   = 1.00e-10
  Density threshold  = 1.00e-10
  Integral threshold = 1.00e-12

  ==> Primary Basis <==

  Basis Set: AUG-CC-PVDZ
    Blend: AUG-CC-PVDZ
    Number of shells: 112
    Number of basis functions: 256
    Number of Cartesian functions: 272
    Spherical Harmonics?: true
    Max angular momentum: 2

   => Loading Basis Set <=

    Name: (AUG-CC-PVDZ AUX)
    Role: JKFIT
    Keyword: DF_BASIS_SCF
    atoms 1-2, 9-10  entry O          line   270 file /theoryfs2/ds/csargent/miniconda3/envs/cle/share/psi4/basis/aug-cc-pvdz-jkfit.gbs 
    atoms 3-6, 11-14 entry H          line    70 file /theoryfs2/ds/csargent/miniconda3/envs/cle/share/psi4/basis/aug-cc-pvdz-jkfit.gbs 
    atoms 7-8, 15-16 entry C          line   154 file /theoryfs2/ds/csargent/miniconda3/envs/cle/share/psi4/basis/aug-cc-pvdz-jkfit.gbs 

  ==> Integral Setup <==

  ==> DiskDFJK: Density-Fitted J/K Matrices <==

    J tasked:                  Yes
    K tasked:                  Yes
    wK tasked:                  No
    OpenMP threads:              6
    Integrals threads:           6
    Memory [MiB]:             5006
    Algorithm:                Core
    Integral Cache:           SAVE
    Schwarz Cutoff:          1E-12
    Fitting Condition:       1E-10

   => Auxiliary Basis Set <=

  Basis Set: (AUG-CC-PVDZ AUX)
    Blend: AUG-CC-PVDZ-JKFIT
    Number of shells: 320
    Number of basis functions: 944
    Number of Cartesian functions: 1088
    Spherical Harmonics?: true
    Max angular momentum: 3

  Minimum eigenvalue in the overlap matrix is 1.0232084426E-04.
  Reciprocal condition number of the overlap matrix is 9.6101987537E-06.
    Using symmetric orthogonalization.

  ==> Pre-Iterations <==

  SCF Guess: Superposition of Atomic Densities via on-the-fly atomic UHF (no occupation information).

   -------------------------
    Irrep   Nso     Nmo    
   -------------------------
     A        256     256 
   -------------------------
    Total     256     256
   -------------------------

  ==> Iterations <==

                           Total Energy        Delta E     RMS |[F,P]|

   @DF-RHF iter SAD:  -453.97985889892237   -4.53980e+02   0.00000e+00 
   @DF-RHF iter   1:  -455.36186653929246   -1.38201e+00   3.22740e-03 DIIS
   @DF-RHF iter   2:  -455.60185671619587   -2.39990e-01   1.87355e-03 DIIS
   @DF-RHF iter   3:  -455.68267118890395   -8.08145e-02   3.30438e-04 DIIS
   @DF-RHF iter   4:  -455.68714536498601   -4.47418e-03   1.46195e-04 DIIS
   @DF-RHF iter   5:  -455.68810762811478   -9.62263e-04   3.42577e-05 DIIS
   @DF-RHF iter   6:  -455.68818195387843   -7.43258e-05   1.66526e-05 DIIS
   @DF-RHF iter   7:  -455.68820151900422   -1.95651e-05   5.43106e-06 DIIS
   @DF-RHF iter   8:  -455.68820467774685   -3.15874e-06   1.43560e-06 DIIS
   @DF-RHF iter   9:  -455.68820491083011   -2.33083e-07   3.01191e-07 DIIS
   @DF-RHF iter  10:  -455.68820491847885   -7.64874e-09   7.94059e-08 DIIS
   @DF-RHF iter  11:  -455.68820491888562   -4.06772e-10   2.55664e-08 DIIS
   @DF-RHF iter  12:  -455.68820491893007   -4.44516e-11   6.35937e-09 DIIS
   @DF-RHF iter  13:  -455.68820491893291   -2.84217e-12   2.29524e-09 DIIS
   @DF-RHF iter  14:  -455.68820491893280    1.13687e-13   1.07214e-09 DIIS
   @DF-RHF iter  15:  -455.68820491893314   -3.41061e-13   1.93710e-10 DIIS
   @DF-RHF iter  16:  -455.68820491893331   -1.70530e-13   8.47852e-11 DIIS
  Energy and wave function converged.


  ==> Post-Iterations <==

    Orbital Energies [Eh]
    ---------------------

    Doubly Occupied:                                                      

       1A    -20.630328     2A    -20.628181     3A    -20.553696  
       4A    -20.551341     5A    -11.396990     6A    -11.394613  
       7A    -11.251827     8A    -11.249185     9A     -1.476719  
      10A     -1.474502    11A     -1.358373    12A     -1.356065  
      13A     -1.033856    14A     -1.031319    15A     -0.838781  
      16A     -0.836500    17A     -0.703946    18A     -0.701653  
      19A     -0.689327    20A     -0.686935    21A     -0.658616  
      22A     -0.656272    23A     -0.577399    24A     -0.575062  
      25A     -0.570551    26A     -0.568083    27A     -0.562254  
      28A     -0.559611    29A     -0.476239    30A     -0.473932  
      31A     -0.453322    32A     -0.450948  

    Virtual:                                                              

      33A      0.030484    34A      0.033985    35A      0.044556  
      36A      0.046904    37A      0.053854    38A      0.057396  
      39A      0.063610    40A      0.067493    41A      0.097155  
      42A      0.101219    43A      0.114733    44A      0.116434  
      45A      0.119186    46A      0.121526    47A      0.139798  
      48A      0.142052    49A      0.150399    50A      0.153911  
      51A      0.155717    52A      0.158557    53A      0.163599  
      54A      0.167671    55A      0.170783    56A      0.172976  
      57A      0.195381    58A      0.198344    59A      0.208492  
      60A      0.210713    61A      0.232109    62A      0.234201  
      63A      0.235204    64A      0.237822    65A      0.270034  
      66A      0.272648    67A      0.289540    68A      0.291627  
      69A      0.294852    70A      0.297840    71A      0.318707  
      72A      0.320709    73A      0.322673    74A      0.324633  
      75A      0.346239    76A      0.349515    77A      0.370695  
      78A      0.372439    79A      0.378110    80A      0.380651  
      81A      0.393258    82A      0.395763    83A      0.400634  
      84A      0.403221    85A      0.425862    86A      0.428323  
      87A      0.437391    88A      0.439965    89A      0.440485  
      90A      0.445992    91A      0.474792    92A      0.477027  
      93A      0.491500    94A      0.494096    95A      0.524041  
      96A      0.526497    97A      0.536507    98A      0.538999  
      99A      0.552694   100A      0.555388   101A      0.568893  
     102A      0.571865   103A      0.582944   104A      0.585696  
     105A      0.601334   106A      0.603531   107A      0.617552  
     108A      0.620032   109A      0.639488   110A      0.641854  
     111A      0.648496   112A      0.650980   113A      0.666069  
     114A      0.668351   115A      0.683457   116A      0.685912  
     117A      0.696533   118A      0.698938   119A      0.702751  
     120A      0.705351   121A      0.732458   122A      0.734933  
     123A      0.742037   124A      0.744399   125A      0.797632  
     126A      0.800252   127A      0.852743   128A      0.855141  
     129A      0.875999   130A      0.878309   131A      0.911627  
     132A      0.913936   133A      0.948845   134A      0.951177  
     135A      0.953519   136A      0.955955   137A      0.982324  
     138A      0.984684   139A      1.040714   140A      1.043006  
     141A      1.087956   142A      1.090657   143A      1.100933  
     144A      1.103919   145A      1.117477   146A      1.120245  
     147A      1.156679   148A      1.159123   149A      1.171258  
     150A      1.173687   151A      1.175549   152A      1.178115  
     153A      1.235197   154A      1.237633   155A      1.271310  
     156A      1.273668   157A      1.318414   158A      1.320692  
     159A      1.357232   160A      1.360087   161A      1.389836  
     162A      1.392052   163A      1.411709   164A      1.414100  
     165A      1.461962   166A      1.464207   167A      1.467451  
     168A      1.469338   169A      1.545170   170A      1.547714  
     171A      1.634192   172A      1.636565   173A      1.649070  
     174A      1.651425   175A      1.714203   176A      1.716956  
     177A      1.754936   178A      1.757418   179A      1.772085  
     180A      1.774691   181A      1.847171   182A      1.849669  
     183A      1.864655   184A      1.867184   185A      1.882979  
     186A      1.885589   187A      1.965602   188A      1.968094  
     189A      1.978695   190A      1.980941   191A      2.025446  
     192A      2.028073   193A      2.036782   194A      2.039390  
     195A      2.121986   196A      2.124376   197A      2.171203  
     198A      2.173601   199A      2.192272   200A      2.194872  
     201A      2.243926   202A      2.246572   203A      2.252936  
     204A      2.255235   205A      2.271479   206A      2.273914  
     207A      2.311432   208A      2.313936   209A      2.378765  
     210A      2.381268   211A      2.429502   212A      2.431838  
     213A      2.437817   214A      2.440530   215A      2.535446  
     216A      2.537931   217A      2.622731   218A      2.625145  
     219A      2.651472   220A      2.654082   221A      2.782864  
     222A      2.785400   223A      2.832815   224A      2.835262  
     225A      2.885240   226A      2.888063   227A      2.973563  
     228A      2.975885   229A      3.000772   230A      3.003239  
     231A      3.015476   232A      3.017918   233A      3.178073  
     234A      3.180522   235A      3.345244   236A      3.347629  
     237A      3.665885   238A      3.668013   239A      3.689567  
     240A      3.691731   241A      3.735591   242A      3.737806  
     243A      3.758787   244A      3.761090   245A      3.789459  
     246A      3.791742   247A      3.804385   248A      3.806703  
     249A      3.899639   250A      3.901817   251A      4.049578  
     252A      4.051787   253A      4.141517   254A      4.143769  
     255A      4.309102   256A      4.311274  

    Final Occupation by Irrep:
              A 
    DOCC [    32 ]

  @DF-RHF Final Energy:  -455.68820491893331

   => Energetics <=

    Nuclear Repulsion Energy =            289.3592318670173427
    One-Electron Energy =               -1197.2420256018169766
    Two-Electron Energy =                 452.1945888158663251
    Total Energy =                       -455.6882049189333088

Computation Completed


Properties will be evaluated at   0.000000,   0.000000,   0.000000 [a0]

Properties computed using the SCF density matrix

  Nuclear Dipole Moment: [e a0]
     X:  -599.6242      Y:   623.2802      Z:  -223.5306

  Electronic Dipole Moment: [e a0]
     X:   601.2813      Y:  -623.2863      Z:   223.3701

  Dipole Moment: [e a0]
     X:     1.6571      Y:    -0.0061      Z:    -0.1605     Total:     1.6649

  Dipole Moment: [D]
     X:     4.2119      Y:    -0.0156      Z:    -0.4081     Total:     4.2317


*** tstop() called on ds1 at Wed Sep  1 14:01:15 2021
Module time:
	user time   =      15.99 seconds =       0.27 minutes
	system time =       0.43 seconds =       0.01 minutes
	total time  =          4 seconds =       0.07 minutes
Total time:
	user time   =      15.99 seconds =       0.27 minutes
	system time =       0.43 seconds =       0.01 minutes
	total time  =          4 seconds =       0.07 minutes

  //>>>>>>>>>>>>>>>>>>>>>>>>>>>>>>>>>>>//
  //            Monomer A HF           //
  //<<<<<<<<<<<<<<<<<<<<<<<<<<<<<<<<<<<//


*** tstart() called on ds1
*** at Wed Sep  1 14:01:15 2021

   => Loading Basis Set <=

    Name: AUG-CC-PVDZ
    Role: ORBITAL
    Keyword: BASIS
    atoms 1-2, 9-10  entry O          line   254 file /theoryfs2/ds/csargent/miniconda3/envs/cle/share/psi4/basis/aug-cc-pvdz.gbs 
    atoms 3-6, 11-14 entry H          line    40 file /theoryfs2/ds/csargent/miniconda3/envs/cle/share/psi4/basis/aug-cc-pvdz.gbs 
    atoms 7-8, 15-16 entry C          line   182 file /theoryfs2/ds/csargent/miniconda3/envs/cle/share/psi4/basis/aug-cc-pvdz.gbs 


         ---------------------------------------------------------
                                   SCF
               by Justin Turney, Rob Parrish, Andy Simmonett
                          and Daniel G. A. Smith
                              RHF Reference
                        6 Threads,   6675 MiB Core
         ---------------------------------------------------------

  ==> Geometry <==

    Molecular point group: c1
    Full point group: C1

    Geometry (in Bohr), charge = 0, multiplicity = 1:

       Center              X                  Y                   Z               Mass       
    ------------   -----------------  -----------------  -----------------  -----------------
         O           -5.531022370000     2.939402900000     1.977626240000    15.994914619570
         O           -2.407088860000     0.908177340000     0.049059090000    15.994914619570
         H           -0.503048870000     1.375792050000     4.638809080000     1.007825032230
         H            0.000000000000     4.251042850000     3.090722380000     1.007825032230
         H           -2.389482150000     4.019167790000     5.401950410000     1.007825032230
         H           -3.747714110000     0.471479300000    -1.215575120000     1.007825032230
         C           -1.418597820000     2.985005000000     3.844051900000    12.000000000000
         C           -3.322637810000     2.286288140000     1.912214130000    12.000000000000
      Gh(O)         -18.107244220000    16.538102540000    -8.924392750000    15.994914619570
      Gh(O)         -14.983310710000    18.569328100000   -10.852959900000    15.994914619570
      Gh(H)         -13.079270730000    18.101713390000    -6.263209910000     1.007825032230
      Gh(H)         -12.576221850000    15.226462590000    -7.811296610000     1.007825032230
      Gh(H)         -14.965704000000    15.458337650000    -5.500068580000     1.007825032230
      Gh(H)         -16.323935960000    19.006026140000   -12.117594110000     1.007825032230
      Gh(C)         -13.994819680000    16.492500440000    -7.057967090000    12.000000000000
      Gh(C)         -15.898859660000    17.191217300000    -8.989804860000    12.000000000000

  Running in c1 symmetry.

  Rotational constants: A =      0.05651  B =      0.00156  C =      0.00154 [cm^-1]
  Rotational constants: A =   1694.12705  B =     46.83188  C =     46.08482 [MHz]
  Nuclear repulsion =  121.748430210971620

  Charge       = 0
  Multiplicity = 1
  Electrons    = 32
  Nalpha       = 16
  Nbeta        = 16

  ==> Algorithm <==

  SCF Algorithm Type is DF.
  DIIS enabled.
  MOM disabled.
  Fractional occupation disabled.
  Guess Type is SAD.
  Energy threshold   = 1.00e-10
  Density threshold  = 1.00e-10
  Integral threshold = 1.00e-12

  ==> Primary Basis <==

  Basis Set: AUG-CC-PVDZ
    Blend: AUG-CC-PVDZ
    Number of shells: 112
    Number of basis functions: 256
    Number of Cartesian functions: 272
    Spherical Harmonics?: true
    Max angular momentum: 2

   => Loading Basis Set <=

    Name: (AUG-CC-PVDZ AUX)
    Role: JKFIT
    Keyword: DF_BASIS_SCF
    atoms 1-2, 9-10  entry O          line   270 file /theoryfs2/ds/csargent/miniconda3/envs/cle/share/psi4/basis/aug-cc-pvdz-jkfit.gbs 
    atoms 3-6, 11-14 entry H          line    70 file /theoryfs2/ds/csargent/miniconda3/envs/cle/share/psi4/basis/aug-cc-pvdz-jkfit.gbs 
    atoms 7-8, 15-16 entry C          line   154 file /theoryfs2/ds/csargent/miniconda3/envs/cle/share/psi4/basis/aug-cc-pvdz-jkfit.gbs 

  ==> Integral Setup <==

  ==> DiskDFJK: Density-Fitted J/K Matrices <==

    J tasked:                  Yes
    K tasked:                  Yes
    wK tasked:                  No
    OpenMP threads:              6
    Integrals threads:           6
    Memory [MiB]:             5006
    Algorithm:                Core
    Integral Cache:           LOAD
    Schwarz Cutoff:          1E-12
    Fitting Condition:       1E-10

   => Auxiliary Basis Set <=

  Basis Set: (AUG-CC-PVDZ AUX)
    Blend: AUG-CC-PVDZ-JKFIT
    Number of shells: 320
    Number of basis functions: 944
    Number of Cartesian functions: 1088
    Spherical Harmonics?: true
    Max angular momentum: 3

  Minimum eigenvalue in the overlap matrix is 1.0232084426E-04.
  Reciprocal condition number of the overlap matrix is 9.6101987537E-06.
    Using symmetric orthogonalization.

  ==> Pre-Iterations <==

  SCF Guess: Superposition of Atomic Densities via on-the-fly atomic UHF (no occupation information).

   -------------------------
    Irrep   Nso     Nmo    
   -------------------------
     A        256     256 
   -------------------------
    Total     256     256
   -------------------------

  ==> Iterations <==

                           Total Energy        Delta E     RMS |[F,P]|

   @DF-RHF iter SAD:  -226.98992943352613   -2.26990e+02   0.00000e+00 
   @DF-RHF iter   1:  -227.68091185963686   -6.90982e-01   2.28211e-03 DIIS
   @DF-RHF iter   2:  -227.80091465637690   -1.20003e-01   1.32478e-03 DIIS
   @DF-RHF iter   3:  -227.84132008129870   -4.04054e-02   2.33581e-04 DIIS
   @DF-RHF iter   4:  -227.84355654694346   -2.23647e-03   1.03339e-04 DIIS
   @DF-RHF iter   5:  -227.84403744892262   -4.80902e-04   2.42136e-05 DIIS
   @DF-RHF iter   6:  -227.84407461703077   -3.71681e-05   1.17797e-05 DIIS
   @DF-RHF iter   7:  -227.84408440519312   -9.78816e-06   3.84273e-06 DIIS
   @DF-RHF iter   8:  -227.84408598678888   -1.58160e-06   1.01577e-06 DIIS
   @DF-RHF iter   9:  -227.84408610343903   -1.16650e-07   2.12953e-07 DIIS
   @DF-RHF iter  10:  -227.84408610725961   -3.82059e-09   5.61602e-08 DIIS
   @DF-RHF iter  11:  -227.84408610746328   -2.03670e-10   1.80147e-08 DIIS
   @DF-RHF iter  12:  -227.84408610748554   -2.22542e-11   4.26466e-09 DIIS
   @DF-RHF iter  13:  -227.84408610748676   -1.22213e-12   8.93570e-10 DIIS
   @DF-RHF iter  14:  -227.84408610748704   -2.84217e-13   2.86710e-10 DIIS
   @DF-RHF iter  15:  -227.84408610748685    1.98952e-13   1.08059e-10 DIIS
   @DF-RHF iter  16:  -227.84408610748710   -2.55795e-13   2.86109e-11 DIIS
  Energy and wave function converged.


  ==> Post-Iterations <==

    Orbital Energies [Eh]
    ---------------------

    Doubly Occupied:                                                      

       1A    -20.629476     2A    -20.552804     3A    -11.396108  
       4A    -11.250979     5A     -1.475852     6A     -1.357486  
       7A     -1.032999     8A     -0.837930     9A     -0.703065  
      10A     -0.688465    11A     -0.657749    12A     -0.576538  
      13A     -0.569697    14A     -0.561403    15A     -0.475343  
      16A     -0.452433  

    Virtual:                                                              

      17A      0.026012    18A      0.032172    19A      0.045378  
      20A      0.048245    21A      0.054427    22A      0.057344  
      23A      0.058846    24A      0.064691    25A      0.086822  
      26A      0.098515    27A      0.105518    28A      0.111777  
      29A      0.117282    30A      0.119087    31A      0.121229  
      32A      0.139177    33A      0.142773    34A      0.145177  
      35A      0.148607    36A      0.152487    37A      0.156438  
      38A      0.164570    39A      0.171335    40A      0.178389  
      41A      0.196302    42A      0.206394    43A      0.209876  
      44A      0.215933    45A      0.227342    46A      0.234265  
      47A      0.234999    48A      0.245784    49A      0.261664  
      50A      0.266376    51A      0.270994    52A      0.278261  
      53A      0.286383    54A      0.291030    55A      0.296194  
      56A      0.319902    57A      0.323204    58A      0.334525  
      59A      0.337864    60A      0.347596    61A      0.370917  
      62A      0.372602    63A      0.378976    64A      0.394170  
      65A      0.401160    66A      0.401607    67A      0.411601  
      68A      0.426727    69A      0.432979    70A      0.437966  
      71A      0.439872    72A      0.442893    73A      0.461861  
      74A      0.475626    75A      0.491791    76A      0.492392  
      77A      0.498906    78A      0.518109    79A      0.524922  
      80A      0.537346    81A      0.543235    82A      0.545424  
      83A      0.553563    84A      0.561371    85A      0.569761  
      86A      0.583797    87A      0.588492    88A      0.602135  
      89A      0.617605    90A      0.618562    91A      0.637930  
      92A      0.638636    93A      0.640346    94A      0.649364  
      95A      0.666881    96A      0.676717    97A      0.684378  
      98A      0.691714    99A      0.697358   100A      0.702558  
     101A      0.703578   102A      0.730110   103A      0.733324  
     104A      0.742823   105A      0.755401   106A      0.763061  
     107A      0.788767   108A      0.798493   109A      0.817549  
     110A      0.821900   111A      0.850024   112A      0.853589  
     113A      0.876880   114A      0.890073   115A      0.898130  
     116A      0.912520   117A      0.949283   118A      0.949789  
     119A      0.954393   120A      0.959741   121A      0.977504  
     122A      0.983218   123A      1.039484   124A      1.041596  
     125A      1.046701   126A      1.088868   127A      1.101853  
     128A      1.108001   129A      1.118402   130A      1.157628  
     131A      1.164128   132A      1.172214   133A      1.176402  
     134A      1.192259   135A      1.236079   136A      1.261955  
     137A      1.271548   138A      1.272213   139A      1.319308  
     140A      1.330941   141A      1.358434   142A      1.385433  
     143A      1.390669   144A      1.397584   145A      1.412585  
     146A      1.436159   147A      1.459566   148A      1.462872  
     149A      1.468226   150A      1.469026   151A      1.470843  
     152A      1.539023   153A      1.546034   154A      1.570632  
     155A      1.635077   156A      1.649928   157A      1.685145  
     158A      1.715160   159A      1.718894   160A      1.755804  
     161A      1.772959   162A      1.801353   163A      1.848045  
     164A      1.865507   165A      1.883631   166A      1.886103  
     167A      1.938817   168A      1.966455   169A      1.979566  
     170A      2.026306   171A      2.037651   172A      2.072621  
     173A      2.122853   174A      2.172057   175A      2.193142  
     176A      2.244795   177A      2.252883   178A      2.253753  
     179A      2.266779   180A      2.272355   181A      2.275385  
     182A      2.304801   183A      2.312273   184A      2.338639  
     185A      2.340975   186A      2.363810   187A      2.378145  
     188A      2.379641   189A      2.430366   190A      2.438675  
     191A      2.468707   192A      2.507205   193A      2.536310  
     194A      2.587675   195A      2.623596   196A      2.652318  
     197A      2.666201   198A      2.700537   199A      2.756203  
     200A      2.783725   201A      2.788015   202A      2.826081  
     203A      2.833704   204A      2.886170   205A      2.917646  
     206A      2.974468   207A      3.001621   208A      3.016342  
     209A      3.044716   210A      3.179017   211A      3.184234  
     212A      3.280480   213A      3.312491   214A      3.346136  
     215A      3.358718   216A      3.433236   217A      3.488686  
     218A      3.664503   219A      3.666788   220A      3.690426  
     221A      3.736461   222A      3.741552   223A      3.759689  
     224A      3.790347   225A      3.805288   226A      3.900524  
     227A      4.027732   228A      4.050463   229A      4.142396  
     230A      4.155029   231A      4.309954   232A      4.506496  
     233A      4.618390   234A      4.726763   235A      4.927406  
     236A      4.971299   237A      4.979394   238A      5.003215  
     239A      5.018327   240A      5.035182   241A      5.054418  
     242A      5.223698   243A      5.246024   244A      5.616561  
     245A      5.662686   246A      5.792749   247A      5.870628  
     248A      6.054371   249A      6.230450   250A      6.522175  
     251A      6.791702   252A      7.094473   253A     18.348144  
     254A     18.942565   255A     33.527122   256A     33.564919  

    Final Occupation by Irrep:
              A 
    DOCC [    16 ]

  @DF-RHF Final Energy:  -227.84408610748710

   => Energetics <=

    Nuclear Repulsion Energy =            121.7484302109716197
    One-Electron Energy =                -552.7483733995142074
    Two-Electron Energy =                 203.1558570810555011
    Total Energy =                       -227.8440861074871009

Computation Completed


Properties will be evaluated at   0.000000,   0.000000,   0.000000 [a0]

Properties computed using the SCF density matrix

  Nuclear Dipole Moment: [e a0]
     X:   -98.5925      Y:    72.5259      Z:    62.6670

  Electronic Dipole Moment: [e a0]
     X:    99.4206      Y:   -72.8088      Z:   -62.7502

  Dipole Moment: [e a0]
     X:     0.8281      Y:    -0.2829      Z:    -0.0832     Total:     0.8790

  Dipole Moment: [D]
     X:     2.1047      Y:    -0.7191      Z:    -0.2116     Total:     2.2342


*** tstop() called on ds1 at Wed Sep  1 14:01:17 2021
Module time:
	user time   =      11.72 seconds =       0.20 minutes
	system time =       0.19 seconds =       0.00 minutes
	total time  =          2 seconds =       0.03 minutes
Total time:
	user time   =      27.74 seconds =       0.46 minutes
	system time =       0.62 seconds =       0.01 minutes
	total time  =          6 seconds =       0.10 minutes

  //>>>>>>>>>>>>>>>>>>>>>>>>>>>>>>>>>>>//
  //            Monomer B HF           //
  //<<<<<<<<<<<<<<<<<<<<<<<<<<<<<<<<<<<//


*** tstart() called on ds1
*** at Wed Sep  1 14:01:17 2021

   => Loading Basis Set <=

    Name: AUG-CC-PVDZ
    Role: ORBITAL
    Keyword: BASIS
    atoms 1-2, 9-10  entry O          line   254 file /theoryfs2/ds/csargent/miniconda3/envs/cle/share/psi4/basis/aug-cc-pvdz.gbs 
    atoms 3-6, 11-14 entry H          line    40 file /theoryfs2/ds/csargent/miniconda3/envs/cle/share/psi4/basis/aug-cc-pvdz.gbs 
    atoms 7-8, 15-16 entry C          line   182 file /theoryfs2/ds/csargent/miniconda3/envs/cle/share/psi4/basis/aug-cc-pvdz.gbs 


         ---------------------------------------------------------
                                   SCF
               by Justin Turney, Rob Parrish, Andy Simmonett
                          and Daniel G. A. Smith
                              RHF Reference
                        6 Threads,   6675 MiB Core
         ---------------------------------------------------------

  ==> Geometry <==

    Molecular point group: c1
    Full point group: C1

    Geometry (in Bohr), charge = 0, multiplicity = 1:

       Center              X                  Y                   Z               Mass       
    ------------   -----------------  -----------------  -----------------  -----------------
      Gh(O)          -5.531022370000     2.939402900000     1.977626240000    15.994914619570
      Gh(O)          -2.407088860000     0.908177340000     0.049059090000    15.994914619570
      Gh(H)          -0.503048870000     1.375792050000     4.638809080000     1.007825032230
      Gh(H)           0.000000000000     4.251042850000     3.090722380000     1.007825032230
      Gh(H)          -2.389482150000     4.019167790000     5.401950410000     1.007825032230
      Gh(H)          -3.747714110000     0.471479300000    -1.215575120000     1.007825032230
      Gh(C)          -1.418597820000     2.985005000000     3.844051900000    12.000000000000
      Gh(C)          -3.322637810000     2.286288140000     1.912214130000    12.000000000000
         O          -18.107244220000    16.538102540000    -8.924392750000    15.994914619570
         O          -14.983310710000    18.569328100000   -10.852959900000    15.994914619570
         H          -13.079270730000    18.101713390000    -6.263209910000     1.007825032230
         H          -12.576221850000    15.226462590000    -7.811296610000     1.007825032230
         H          -14.965704000000    15.458337650000    -5.500068580000     1.007825032230
         H          -16.323935960000    19.006026140000   -12.117594110000     1.007825032230
         C          -13.994819680000    16.492500440000    -7.057967090000    12.000000000000
         C          -15.898859660000    17.191217300000    -8.989804860000    12.000000000000

  Running in c1 symmetry.

  Rotational constants: A =      0.05651  B =      0.00156  C =      0.00154 [cm^-1]
  Rotational constants: A =   1694.12705  B =     46.83188  C =     46.08482 [MHz]
  Nuclear repulsion =  121.748430272160689

  Charge       = 0
  Multiplicity = 1
  Electrons    = 32
  Nalpha       = 16
  Nbeta        = 16

  ==> Algorithm <==

  SCF Algorithm Type is DF.
  DIIS enabled.
  MOM disabled.
  Fractional occupation disabled.
  Guess Type is SAD.
  Energy threshold   = 1.00e-10
  Density threshold  = 1.00e-10
  Integral threshold = 1.00e-12

  ==> Primary Basis <==

  Basis Set: AUG-CC-PVDZ
    Blend: AUG-CC-PVDZ
    Number of shells: 112
    Number of basis functions: 256
    Number of Cartesian functions: 272
    Spherical Harmonics?: true
    Max angular momentum: 2

   => Loading Basis Set <=

    Name: (AUG-CC-PVDZ AUX)
    Role: JKFIT
    Keyword: DF_BASIS_SCF
    atoms 1-2, 9-10  entry O          line   270 file /theoryfs2/ds/csargent/miniconda3/envs/cle/share/psi4/basis/aug-cc-pvdz-jkfit.gbs 
    atoms 3-6, 11-14 entry H          line    70 file /theoryfs2/ds/csargent/miniconda3/envs/cle/share/psi4/basis/aug-cc-pvdz-jkfit.gbs 
    atoms 7-8, 15-16 entry C          line   154 file /theoryfs2/ds/csargent/miniconda3/envs/cle/share/psi4/basis/aug-cc-pvdz-jkfit.gbs 

  ==> Integral Setup <==

  ==> DiskDFJK: Density-Fitted J/K Matrices <==

    J tasked:                  Yes
    K tasked:                  Yes
    wK tasked:                  No
    OpenMP threads:              6
    Integrals threads:           6
    Memory [MiB]:             5006
    Algorithm:                Core
    Integral Cache:           LOAD
    Schwarz Cutoff:          1E-12
    Fitting Condition:       1E-10

   => Auxiliary Basis Set <=

  Basis Set: (AUG-CC-PVDZ AUX)
    Blend: AUG-CC-PVDZ-JKFIT
    Number of shells: 320
    Number of basis functions: 944
    Number of Cartesian functions: 1088
    Spherical Harmonics?: true
    Max angular momentum: 3

  Minimum eigenvalue in the overlap matrix is 1.0232084426E-04.
  Reciprocal condition number of the overlap matrix is 9.6101987537E-06.
    Using symmetric orthogonalization.

  ==> Pre-Iterations <==

  SCF Guess: Superposition of Atomic Densities via on-the-fly atomic UHF (no occupation information).

   -------------------------
    Irrep   Nso     Nmo    
   -------------------------
     A        256     256 
   -------------------------
    Total     256     256
   -------------------------

  ==> Iterations <==

                           Total Energy        Delta E     RMS |[F,P]|

   @DF-RHF iter SAD:  -226.98992944030832   -2.26990e+02   0.00000e+00 
   @DF-RHF iter   1:  -227.68091174807418   -6.90982e-01   2.28211e-03 DIIS
   @DF-RHF iter   2:  -227.80091455079096   -1.20003e-01   1.32478e-03 DIIS
   @DF-RHF iter   3:  -227.84131998011489   -4.04054e-02   2.33581e-04 DIIS
   @DF-RHF iter   4:  -227.84355644461121   -2.23646e-03   1.03339e-04 DIIS
   @DF-RHF iter   5:  -227.84403734634640   -4.80902e-04   2.42136e-05 DIIS
   @DF-RHF iter   6:  -227.84407451435729   -3.71680e-05   1.17797e-05 DIIS
   @DF-RHF iter   7:  -227.84408430248925   -9.78813e-06   3.84272e-06 DIIS
   @DF-RHF iter   8:  -227.84408588407842   -1.58159e-06   1.01577e-06 DIIS
   @DF-RHF iter   9:  -227.84408600072928   -1.16651e-07   2.12954e-07 DIIS
   @DF-RHF iter  10:  -227.84408600454938   -3.82011e-09   5.61608e-08 DIIS
   @DF-RHF iter  11:  -227.84408600475359   -2.04210e-10   1.80148e-08 DIIS
   @DF-RHF iter  12:  -227.84408600477545   -2.18563e-11   4.26467e-09 DIIS
   @DF-RHF iter  13:  -227.84408600477681   -1.36424e-12   8.93572e-10 DIIS
   @DF-RHF iter  14:  -227.84408600477664    1.70530e-13   2.86711e-10 DIIS
   @DF-RHF iter  15:  -227.84408600477693   -2.84217e-13   1.08060e-10 DIIS
   @DF-RHF iter  16:  -227.84408600477701   -8.52651e-14   2.86117e-11 DIIS
  Energy and wave function converged.


  ==> Post-Iterations <==

    Orbital Energies [Eh]
    ---------------------

    Doubly Occupied:                                                      

       1A    -20.629476     2A    -20.552804     3A    -11.396108  
       4A    -11.250979     5A     -1.475853     6A     -1.357486  
       7A     -1.032999     8A     -0.837930     9A     -0.703065  
      10A     -0.688465    11A     -0.657749    12A     -0.576538  
      13A     -0.569697    14A     -0.561403    15A     -0.475343  
      16A     -0.452434  

    Virtual:                                                              

      17A      0.023433    18A      0.032193    19A      0.044452  
      20A      0.046301    21A      0.053392    22A      0.055202  
      23A      0.057624    24A      0.064834    25A      0.084624  
      26A      0.098195    27A      0.104167    28A      0.110793  
      29A      0.116346    30A      0.117813    31A      0.118530  
      32A      0.139493    33A      0.140294    34A      0.140678  
      35A      0.145786    36A      0.152402    37A      0.156633  
      38A      0.164889    39A      0.171334    40A      0.176583  
      41A      0.195588    42A      0.206354    43A      0.209445  
      44A      0.213857    45A      0.225447    46A      0.233573  
      47A      0.234956    48A      0.243566    49A      0.259772  
      50A      0.264723    51A      0.271312    52A      0.275790  
      53A      0.284675    54A      0.290303    55A      0.296089  
      56A      0.319926    57A      0.322845    58A      0.331545  
      59A      0.335745    60A      0.347833    61A      0.368683  
      62A      0.370663    63A      0.378891    64A      0.394133  
      65A      0.398517    66A      0.401726    67A      0.408965  
      68A      0.426848    69A      0.430312    70A      0.436951  
      71A      0.438383    72A      0.443748    73A      0.459681  
      74A      0.475580    75A      0.489434    76A      0.492472  
      77A      0.496443    78A      0.515763    79A      0.524770  
      80A      0.537237    81A      0.541077    82A      0.542859  
      83A      0.553696    84A      0.558956    85A      0.569898  
      86A      0.583852    87A      0.586206    88A      0.602105  
      89A      0.615455    90A      0.618669    91A      0.635648  
      92A      0.636346    93A      0.640349    94A      0.649306  
      95A      0.666722    96A      0.674345    97A      0.684228  
      98A      0.689289    99A      0.697296   100A      0.699983  
     101A      0.703577   102A      0.727320   103A      0.733392  
     104A      0.742774   105A      0.752862   106A      0.759530  
     107A      0.786316   108A      0.798462   109A      0.815043  
     110A      0.819310   111A      0.847466   112A      0.853586  
     113A      0.876837   114A      0.887569   115A      0.895684  
     116A      0.912451   117A      0.946803   118A      0.949703  
     119A      0.954383   120A      0.957356   121A      0.975113  
     122A      0.983146   123A      1.037651   124A      1.041560  
     125A      1.044391   126A      1.088953   127A      1.102285  
     128A      1.105707   129A      1.118546   130A      1.157599  
     131A      1.161695   132A      1.172276   133A      1.176472  
     134A      1.190101   135A      1.236202   136A      1.259799  
     137A      1.269417   138A      1.272240   139A      1.319234  
     140A      1.328920   141A      1.358287   142A      1.383214  
     143A      1.390463   144A      1.395467   145A      1.412462  
     146A      1.433825   147A      1.457505   148A      1.462808  
     149A      1.466782   150A      1.467999   151A      1.468686  
     152A      1.536710   153A      1.546022   154A      1.568588  
     155A      1.635076   156A      1.649927   157A      1.682916  
     158A      1.714965   159A      1.717151   160A      1.755839  
     161A      1.772923   162A      1.799156   163A      1.848116  
     164A      1.865523   165A      1.882072   166A      1.883819  
     167A      1.936213   168A      1.966653   169A      1.979464  
     170A      2.026437   171A      2.037849   172A      2.070006  
     173A      2.122866   174A      2.172049   175A      2.193263  
     176A      2.244862   177A      2.250082   178A      2.253646  
     179A      2.264210   180A      2.272362   181A      2.273156  
     182A      2.302230   183A      2.312387   184A      2.335789  
     185A      2.338380   186A      2.361412   187A      2.375746  
     188A      2.379633   189A      2.430342   190A      2.438845  
     191A      2.466394   192A      2.505105   193A      2.536312  
     194A      2.585193   195A      2.623594   196A      2.652308  
     197A      2.663883   198A      2.697587   199A      2.753591  
     200A      2.783687   201A      2.785475   202A      2.823422  
     203A      2.833653   204A      2.886307   205A      2.915244  
     206A      2.974319   207A      3.001613   208A      3.016338  
     209A      3.041963   210A      3.178986   211A      3.181669  
     212A      3.277986   213A      3.309966   214A      3.346156  
     215A      3.356213   216A      3.430827   217A      3.486043  
     218A      3.662081   219A      3.666707   220A      3.690425  
     221A      3.736444   222A      3.739427   223A      3.759663  
     224A      3.790336   225A      3.805274   226A      3.900440  
     227A      4.025434   228A      4.050371   229A      4.142354  
     230A      4.153025   231A      4.309957   232A      4.504246  
     233A      4.616192   234A      4.724222   235A      4.925195  
     236A      4.969141   237A      4.977372   238A      5.000963  
     239A      5.016167   240A      5.033080   241A      5.051786  
     242A      5.221317   243A      5.243517   244A      5.614567  
     245A      5.660567   246A      5.790755   247A      5.868861  
     248A      6.052123   249A      6.228137   250A      6.520183  
     251A      6.789638   252A      7.092354   253A     18.345566  
     254A     18.940118   255A     33.524813   256A     33.562945  

    Final Occupation by Irrep:
              A 
    DOCC [    16 ]

  @DF-RHF Final Energy:  -227.84408600477701

   => Energetics <=

    Nuclear Repulsion Energy =            121.7484302721606895
    One-Electron Energy =                -552.7483720076742202
    Two-Electron Energy =                 203.1558557307365049
    Total Energy =                       -227.8440860047770116

Computation Completed


Properties will be evaluated at   0.000000,   0.000000,   0.000000 [a0]

Properties computed using the SCF density matrix

  Nuclear Dipole Moment: [e a0]
     X:  -501.0316      Y:   550.7543      Z:  -286.1976

  Electronic Dipole Moment: [e a0]
     X:   501.8597      Y:  -550.4714      Z:   286.1144

  Dipole Moment: [e a0]
     X:     0.8281      Y:     0.2829      Z:    -0.0832     Total:     0.8790

  Dipole Moment: [D]
     X:     2.1047      Y:     0.7191      Z:    -0.2116     Total:     2.2342


*** tstop() called on ds1 at Wed Sep  1 14:01:20 2021
Module time:
	user time   =      11.53 seconds =       0.19 minutes
	system time =       0.21 seconds =       0.00 minutes
	total time  =          3 seconds =       0.05 minutes
Total time:
	user time   =      39.59 seconds =       0.66 minutes
	system time =       0.84 seconds =       0.01 minutes
	total time  =          9 seconds =       0.15 minutes
  Constructing Basis Sets for SAPT...

   => Loading Basis Set <=

    Name: (AUG-CC-PVDZ AUX)
    Role: RIFIT
    Keyword: DF_BASIS_SAPT
    atoms 1-2, 9-10  entry O          line   204 file /theoryfs2/ds/csargent/miniconda3/envs/cle/share/psi4/basis/aug-cc-pvdz-ri.gbs 
    atoms 3-6, 11-14 entry H          line    30 file /theoryfs2/ds/csargent/miniconda3/envs/cle/share/psi4/basis/aug-cc-pvdz-ri.gbs 
    atoms 7-8, 15-16 entry C          line   112 file /theoryfs2/ds/csargent/miniconda3/envs/cle/share/psi4/basis/aug-cc-pvdz-ri.gbs 


  //>>>>>>>>>>>>>>>>>>>>>>>>>>>>>>>>>>>//
  //               SAPT0               //
  //<<<<<<<<<<<<<<<<<<<<<<<<<<<<<<<<<<<//


*** tstart() called on ds1
*** at Wed Sep  1 14:01:20 2021

        SAPT0  
    Ed Hohenstein
     6 June 2009

      Orbital Information
  --------------------------
    NSO        =       256
    NMO        =       256
    NRI        =       760
    NOCC A     =        16
    NOCC B     =        16
    FOCC A     =         4
    FOCC B     =         4
    NVIR A     =       240
    NVIR B     =       240

    Elst10,r            =    -0.000031982912 [Eh]
    Exch10              =     0.000000000132 [Eh]
    Exch10 (S^2)        =     0.000000000132 [Eh]

    Iter     Energy [mEh]          dE [mEh]         Residual      Time [s]
       1      -0.00015453       0.000154529       0.096432694             0
       2      -0.00014812      -0.000006409       0.027505671             0
       3      -0.00015624       0.000008119       0.013385147             0
       4      -0.00015919       0.000002954       0.002314982             0
       5      -0.00015868      -0.000000518       0.001034491             0
       6      -0.00015863      -0.000000043       0.000399123             0
       7      -0.00015868       0.000000046       0.000131517             0
       8      -0.00015868       0.000000003       0.000040852             0
       9      -0.00015868      -0.000000003       0.000009724             0
      10      -0.00015868      -0.000000000       0.000002989             0
      11      -0.00015868       0.000000000       0.000000987             0

    CHF Iterations converged


    Iter     Energy [mEh]          dE [mEh]         Residual      Time [s]
       1      -0.00051547       0.000515474       0.143397395             1
       2      -0.00059029       0.000074813       0.073634760             1
       3      -0.00062245       0.000032164       0.019248529             1
       4      -0.00062605       0.000003598       0.005250548             1
       5      -0.00062505      -0.000001002       0.001938948             1
       6      -0.00062454      -0.000000509       0.000524650             1
       7      -0.00062460       0.000000057       0.000252213             1
       8      -0.00062464       0.000000047       0.000081727             1
       9      -0.00062463      -0.000000014       0.000026998             1
      10      -0.00062463      -0.000000003       0.000007812             1
      11      -0.00062463       0.000000002       0.000002437             1
      12      -0.00062463      -0.000000000       0.000001093             1
      13      -0.00062463      -0.000000000       0.000000259             1

    CHF Iterations converged

    Ind20,r (A<-B)      =    -0.000000158679 [Eh]
    Ind20,r (B<-A)      =    -0.000000624627 [Eh]
    Ind20,r             =    -0.000000783306 [Eh]
    Exch-Ind20,r (A<-B) =     0.000000000350 [Eh]
    Exch-Ind20,r (B<-A) =     0.000000000027 [Eh]
    Exch-Ind20,r        =     0.000000000377 [Eh]
    Disp20              =    -0.000005722323 [Eh]
    Disp20 (SS)         =    -0.000002861161 [Eh]
    Disp20 (OS)         =    -0.000002861161 [Eh]
    Exch-Disp20         =     0.000000000035 [Eh]
    Exch-Disp20 (SS)    =     0.000000000029 [Eh]
    Exch-Disp20 (OS)    =     0.000000000006 [Eh]

    SAPT Results 
  --------------------------------------------------------------------------------------------------------
    Electrostatics                 -0.03198291 [mEh]      -0.02006958 [kcal/mol]      -0.08397112 [kJ/mol]
      Elst10,r                     -0.03198291 [mEh]      -0.02006958 [kcal/mol]      -0.08397112 [kJ/mol]

    Exchange                        0.00000013 [mEh]       0.00000008 [kcal/mol]       0.00000035 [kJ/mol]
      Exch10                        0.00000013 [mEh]       0.00000008 [kcal/mol]       0.00000035 [kJ/mol]
      Exch10(S^2)                   0.00000013 [mEh]       0.00000008 [kcal/mol]       0.00000035 [kJ/mol]

    Induction                      -0.00082389 [mEh]      -0.00051700 [kcal/mol]      -0.00216312 [kJ/mol]
      Ind20,r                      -0.00078331 [mEh]      -0.00049153 [kcal/mol]      -0.00205657 [kJ/mol]
      Exch-Ind20,r                  0.00000038 [mEh]       0.00000024 [kcal/mol]       0.00000099 [kJ/mol]
      delta HF,r (2)               -0.00004096 [mEh]      -0.00002570 [kcal/mol]      -0.00010754 [kJ/mol]

    Dispersion                     -0.00572229 [mEh]      -0.00359079 [kcal/mol]      -0.01502386 [kJ/mol]
      Disp20                       -0.00572232 [mEh]      -0.00359081 [kcal/mol]      -0.01502396 [kJ/mol]
      Exch-Disp20                   0.00000004 [mEh]       0.00000002 [kcal/mol]       0.00000009 [kJ/mol]
      Disp20 (SS)                  -0.00286116 [mEh]      -0.00179541 [kcal/mol]      -0.00751198 [kJ/mol]
      Disp20 (OS)                  -0.00286116 [mEh]      -0.00179541 [kcal/mol]      -0.00751198 [kJ/mol]
      Exch-Disp20 (SS)              0.00000003 [mEh]       0.00000002 [kcal/mol]       0.00000008 [kJ/mol]
      Exch-Disp20 (OS)              0.00000001 [mEh]       0.00000000 [kcal/mol]       0.00000002 [kJ/mol]

  Total HF                         -0.03280667 [mEh]      -0.02058650 [kcal/mol]      -0.08613390 [kJ/mol]
  Total SAPT0                      -0.03852896 [mEh]      -0.02417729 [kcal/mol]      -0.10115776 [kJ/mol]

  Special recipe for scaled SAPT0 (see Manual):
    Electrostatics sSAPT0          -0.03198291 [mEh]      -0.02006958 [kcal/mol]      -0.08397112 [kJ/mol]
    Exchange sSAPT0                 0.00000013 [mEh]       0.00000008 [kcal/mol]       0.00000035 [kJ/mol]
    Induction sSAPT0               -0.00082389 [mEh]      -0.00051700 [kcal/mol]      -0.00216312 [kJ/mol]
    Dispersion sSAPT0              -0.00572229 [mEh]      -0.00359079 [kcal/mol]      -0.01502386 [kJ/mol]
  Total sSAPT0                     -0.03852896 [mEh]      -0.02417729 [kcal/mol]      -0.10115776 [kJ/mol]
  --------------------------------------------------------------------------------------------------------

*** tstop() called on ds1 at Wed Sep  1 14:01:26 2021
Module time:
	user time   =      28.41 seconds =       0.47 minutes
	system time =       2.57 seconds =       0.04 minutes
	total time  =          6 seconds =       0.10 minutes
Total time:
	user time   =      68.51 seconds =       1.14 minutes
	system time =       3.42 seconds =       0.06 minutes
	total time  =         15 seconds =       0.25 minutes


Warning! sapt0 does not have an associated derived wavefunction.The returned wavefunction is the dimer SCF wavefunction.


    Psi4 stopped on: Wednesday, 01 September 2021 02:01PM
    Psi4 wall time for execution: 0:00:14.65

*** Psi4 exiting successfully. Buy a developer a beer!
