
    -----------------------------------------------------------------------
          Psi4: An Open-Source Ab Initio Electronic Structure Package
                               Psi4 1.4rc3 

                         Git: Rev {HEAD} 080dba6 


    D. G. A. Smith, L. A. Burns, A. C. Simmonett, R. M. Parrish,
    M. C. Schieber, R. Galvelis, P. Kraus, H. Kruse, R. Di Remigio,
    A. Alenaizan, A. M. James, S. Lehtola, J. P. Misiewicz, M. Scheurer,
    R. A. Shaw, J. B. Schriber, Y. Xie, Z. L. Glick, D. A. Sirianni,
    J. S. O'Brien, J. M. Waldrop, A. Kumar, E. G. Hohenstein,
    B. P. Pritchard, B. R. Brooks, H. F. Schaefer III, A. Yu. Sokolov,
    K. Patkowski, A. E. DePrince III, U. Bozkaya, R. A. King,
    F. A. Evangelista, J. M. Turney, T. D. Crawford, C. D. Sherrill,
    J. Chem. Phys. 152(18) 184108 (2020). https://doi.org/10.1063/5.0006002

                            Additional Code Authors
    E. T. Seidl, C. L. Janssen, E. F. Valeev, M. L. Leininger,
    J. F. Gonthier, R. M. Richard, H. R. McAlexander, M. Saitow, X. Wang,
    P. Verma, and M. H. Lechner

             Previous Authors, Complete List of Code Contributors,
                       and Citations for Specific Modules
    https://github.com/psi4/psi4/blob/master/codemeta.json
    https://github.com/psi4/psi4/graphs/contributors
    http://psicode.org/psi4manual/master/introduction.html#citing-psifour

    -----------------------------------------------------------------------


    Psi4 started on: Wednesday, 01 September 2021 02:16PM

    Process ID: 21286
    Host:       ds1
    PSIDATADIR: /theoryfs2/ds/csargent/miniconda3/envs/cle/share/psi4
    Memory:     500.0 MiB
    Threads:    6
    
  ==> Input File <==

--------------------------------------------------------------------------
# PSI4 file produced by CrystaLattE

# Generated from:               acetic_acid.xyz
# Psithon input for N-mer:      2mer-0+349
# Number of atoms per monomer:  [8, 8]
# Number of replicas:           2
# COM priority:                 1.737237276373e-05
# Minimum COM separations:      20.432 
# Separation priority:          2.595217624349e-05
# Minimum monomer separations:  17.874 
# Cutoff priority:              7.683605212551e-07
# Nuclear repulsion energy:     270.038533173666

memory 7 GB

molecule Dimer_0_349 {
  O           -5.53102237       2.93940290       1.97762624 
  O           -2.40708886       0.90817734       0.04905909 
  H           -0.50304887       1.37579205       4.63880908 
  H            0.00000000       4.25104285       3.09072238 
  H           -2.38948215       4.01916779       5.40195041 
  H           -3.74771411       0.47147930      -1.21557512 
  C           -1.41859782       2.98500500       3.84405190 
  C           -3.32263781       2.28628814       1.91221413 
--
  O           32.19764318      -6.64940394       1.97762624 
  O           35.32157669      -4.61817837       0.04905909 
  H           37.22561668      -5.08579309       4.63880908 
  H           37.72866555      -7.96104389       3.09072238 
  H           35.33918340      -7.72916883       5.40195041 
  H           33.98095144      -4.18148033      -1.21557512 
  C           36.31006773      -6.69500604       3.84405190 
  C           34.40602774      -5.99628918       1.91221413 
units = au
no_com
no_reorient
}

set {
  e_convergence 10
  d_convergence 10
  scf_type df
  mp2_type df
  cc_type df
  freeze_core true
}

energy('sapt0/aug-cc-pvdz')

--------------------------------------------------------------------------

  Memory set to   6.519 GiB by Python driver.

Scratch directory: /scratch/csargent/psi4.17562.33784/

Scratch directory: /scratch/csargent/psi4.17562.33784/

  //>>>>>>>>>>>>>>>>>>>>>>>>>>>>>>>>>>>//
  //              Dimer HF             //
  //<<<<<<<<<<<<<<<<<<<<<<<<<<<<<<<<<<<//


*** tstart() called on ds1
*** at Wed Sep  1 14:16:53 2021

   => Loading Basis Set <=

    Name: AUG-CC-PVDZ
    Role: ORBITAL
    Keyword: BASIS
    atoms 1-2, 9-10  entry O          line   254 file /theoryfs2/ds/csargent/miniconda3/envs/cle/share/psi4/basis/aug-cc-pvdz.gbs 
    atoms 3-6, 11-14 entry H          line    40 file /theoryfs2/ds/csargent/miniconda3/envs/cle/share/psi4/basis/aug-cc-pvdz.gbs 
    atoms 7-8, 15-16 entry C          line   182 file /theoryfs2/ds/csargent/miniconda3/envs/cle/share/psi4/basis/aug-cc-pvdz.gbs 


         ---------------------------------------------------------
                                   SCF
               by Justin Turney, Rob Parrish, Andy Simmonett
                          and Daniel G. A. Smith
                              RHF Reference
                        6 Threads,   6675 MiB Core
         ---------------------------------------------------------

  ==> Geometry <==

    Molecular point group: c1
    Full point group: C1

    Geometry (in Bohr), charge = 0, multiplicity = 1:

       Center              X                  Y                   Z               Mass       
    ------------   -----------------  -----------------  -----------------  -----------------
         O           -5.531022370000     2.939402900000     1.977626240000    15.994914619570
         O           -2.407088860000     0.908177340000     0.049059090000    15.994914619570
         H           -0.503048870000     1.375792050000     4.638809080000     1.007825032230
         H            0.000000000000     4.251042850000     3.090722380000     1.007825032230
         H           -2.389482150000     4.019167790000     5.401950410000     1.007825032230
         H           -3.747714110000     0.471479300000    -1.215575120000     1.007825032230
         C           -1.418597820000     2.985005000000     3.844051900000    12.000000000000
         C           -3.322637810000     2.286288140000     1.912214130000    12.000000000000
         O           32.197643180000    -6.649403940000     1.977626240000    15.994914619570
         O           35.321576690000    -4.618178370000     0.049059090000    15.994914619570
         H           37.225616680000    -5.085793090000     4.638809080000     1.007825032230
         H           37.728665550000    -7.961043890000     3.090722380000     1.007825032230
         H           35.339183400000    -7.729168830000     5.401950410000     1.007825032230
         H           33.980951440000    -4.181480330000    -1.215575120000     1.007825032230
         C           36.310067730000    -6.695006040000     3.844051900000    12.000000000000
         C           34.406027740000    -5.996289180000     1.912214130000    12.000000000000

  Running in c1 symmetry.

  Rotational constants: A =      0.07574  B =      0.00080  C =      0.00080 [cm^-1]
  Rotational constants: A =   2270.58138  B =     24.00939  C =     23.85359 [MHz]
  Nuclear repulsion =  270.038533135071987

  Charge       = 0
  Multiplicity = 1
  Electrons    = 64
  Nalpha       = 32
  Nbeta        = 32

  ==> Algorithm <==

  SCF Algorithm Type is DF.
  DIIS enabled.
  MOM disabled.
  Fractional occupation disabled.
  Guess Type is SAD.
  Energy threshold   = 1.00e-10
  Density threshold  = 1.00e-10
  Integral threshold = 1.00e-12

  ==> Primary Basis <==

  Basis Set: AUG-CC-PVDZ
    Blend: AUG-CC-PVDZ
    Number of shells: 112
    Number of basis functions: 256
    Number of Cartesian functions: 272
    Spherical Harmonics?: true
    Max angular momentum: 2

   => Loading Basis Set <=

    Name: (AUG-CC-PVDZ AUX)
    Role: JKFIT
    Keyword: DF_BASIS_SCF
    atoms 1-2, 9-10  entry O          line   270 file /theoryfs2/ds/csargent/miniconda3/envs/cle/share/psi4/basis/aug-cc-pvdz-jkfit.gbs 
    atoms 3-6, 11-14 entry H          line    70 file /theoryfs2/ds/csargent/miniconda3/envs/cle/share/psi4/basis/aug-cc-pvdz-jkfit.gbs 
    atoms 7-8, 15-16 entry C          line   154 file /theoryfs2/ds/csargent/miniconda3/envs/cle/share/psi4/basis/aug-cc-pvdz-jkfit.gbs 

  ==> Integral Setup <==

  ==> DiskDFJK: Density-Fitted J/K Matrices <==

    J tasked:                  Yes
    K tasked:                  Yes
    wK tasked:                  No
    OpenMP threads:              6
    Integrals threads:           6
    Memory [MiB]:             5006
    Algorithm:                Core
    Integral Cache:           SAVE
    Schwarz Cutoff:          1E-12
    Fitting Condition:       1E-10

   => Auxiliary Basis Set <=

  Basis Set: (AUG-CC-PVDZ AUX)
    Blend: AUG-CC-PVDZ-JKFIT
    Number of shells: 320
    Number of basis functions: 944
    Number of Cartesian functions: 1088
    Spherical Harmonics?: true
    Max angular momentum: 3

  Minimum eigenvalue in the overlap matrix is 1.0277546076E-04.
  Reciprocal condition number of the overlap matrix is 9.6539162162E-06.
    Using symmetric orthogonalization.

  ==> Pre-Iterations <==

  SCF Guess: Superposition of Atomic Densities via on-the-fly atomic UHF (no occupation information).

   -------------------------
    Irrep   Nso     Nmo    
   -------------------------
     A        256     256 
   -------------------------
    Total     256     256
   -------------------------

  ==> Iterations <==

                           Total Energy        Delta E     RMS |[F,P]|

   @DF-RHF iter SAD:  -453.97985885281071   -4.53980e+02   0.00000e+00 
   @DF-RHF iter   1:  -455.36186890829828   -1.38201e+00   3.22732e-03 DIIS
   @DF-RHF iter   2:  -455.60187851630519   -2.40010e-01   1.87320e-03 DIIS
   @DF-RHF iter   3:  -455.68266272911427   -8.07842e-02   3.30195e-04 DIIS
   @DF-RHF iter   4:  -455.68713363081292   -4.47090e-03   1.46080e-04 DIIS
   @DF-RHF iter   5:  -455.68809467102437   -9.61040e-04   3.42271e-05 DIIS
   @DF-RHF iter   6:  -455.68816894839671   -7.42774e-05   1.66545e-05 DIIS
   @DF-RHF iter   7:  -455.68818850647347   -1.95581e-05   5.43164e-06 DIIS
   @DF-RHF iter   8:  -455.68819166770459   -3.16123e-06   1.43616e-06 DIIS
   @DF-RHF iter   9:  -455.68819190089243   -2.33188e-07   3.01196e-07 DIIS
   @DF-RHF iter  10:  -455.68819190853668   -7.64425e-09   7.94255e-08 DIIS
   @DF-RHF iter  11:  -455.68819190894396   -4.07283e-10   2.54829e-08 DIIS
   @DF-RHF iter  12:  -455.68819190898745   -4.34852e-11   6.04568e-09 DIIS
   @DF-RHF iter  13:  -455.68819190899080   -3.35376e-12   1.32826e-09 DIIS
   @DF-RHF iter  14:  -455.68819190899114   -3.41061e-13   6.03544e-10 DIIS
   @DF-RHF iter  15:  -455.68819190899080    3.41061e-13   2.09948e-10 DIIS
   @DF-RHF iter  16:  -455.68819190899126   -4.54747e-13   5.74196e-11 DIIS
  Energy and wave function converged.


  ==> Post-Iterations <==

    Orbital Energies [Eh]
    ---------------------

    Doubly Occupied:                                                      

       1A    -20.629963     2A    -20.628907     3A    -20.553305  
       4A    -20.552259     5A    -11.396602     6A    -11.395555  
       7A    -11.251437     8A    -11.250387     9A     -1.476343  
      10A     -1.475291    11A     -1.357986    12A     -1.356939  
      13A     -1.033467    14A     -1.032417    15A     -0.838410  
      16A     -0.837356    17A     -0.703564    18A     -0.702515  
      19A     -0.688945    20A     -0.687893    21A     -0.658229  
      22A     -0.657177    23A     -0.577023    24A     -0.575970  
      25A     -0.570162    26A     -0.569110    27A     -0.561866  
      28A     -0.560821    29A     -0.475847    30A     -0.474801  
      31A     -0.452933    32A     -0.451887  

    Virtual:                                                              

      33A      0.031769    34A      0.032837    35A      0.045165  
      36A      0.046198    37A      0.054677    38A      0.055747  
      39A      0.064184    40A      0.065196    41A      0.098297  
      42A      0.099337    43A      0.116827    44A      0.117377  
      45A      0.117884    46A      0.118422    47A      0.140062  
      48A      0.141111    49A      0.151547    50A      0.152636  
      51A      0.155899    52A      0.156932    53A      0.164117  
      54A      0.165132    55A      0.170835    56A      0.171891  
      57A      0.195832    58A      0.196885    59A      0.208752  
      60A      0.209809    61A      0.232902    62A      0.233962  
      63A      0.234477    64A      0.235533    65A      0.270377  
      66A      0.271417    67A      0.289762    68A      0.290814  
      69A      0.295350    70A      0.296406    71A      0.319341  
      72A      0.320395    73A      0.322262    74A      0.323300  
      75A      0.346808    76A      0.347855    77A      0.370149  
      78A      0.371196    79A      0.378414    80A      0.379470  
      81A      0.393637    82A      0.394691    83A      0.400952  
      84A      0.401996    85A      0.426242    86A      0.427313  
      87A      0.437748    88A      0.438799    89A      0.441561  
      90A      0.442612    91A      0.475067    92A      0.476117  
      93A      0.491901    94A      0.492951    95A      0.524306  
      96A      0.525360    97A      0.536773    98A      0.537812  
      99A      0.553028   100A      0.554082   101A      0.569277  
     102A      0.570317   103A      0.583329   104A      0.584377  
     105A      0.601623   106A      0.602675   107A      0.617759  
     108A      0.618808   109A      0.639841   110A      0.640899  
     111A      0.648836   112A      0.649881   113A      0.666241  
     114A      0.667302   115A      0.683735   116A      0.684774  
     117A      0.696711   118A      0.697757   119A      0.703109  
     120A      0.704163   121A      0.732815   122A      0.733870  
     123A      0.742272   124A      0.743325   125A      0.798000  
     126A      0.799046   127A      0.853103   128A      0.854153  
     129A      0.876335   130A      0.877384   131A      0.911914  
     132A      0.912962   133A      0.949217   134A      0.950266  
     135A      0.953896   136A      0.954942   137A      0.982661  
     138A      0.983713   139A      1.041062   140A      1.042117  
     141A      1.088354   142A      1.089398   143A      1.101376  
     144A      1.102432   145A      1.117894   146A      1.118942  
     147A      1.157030   148A      1.158081   149A      1.171660  
     150A      1.172716   151A      1.175879   152A      1.176930  
     153A      1.235560   154A      1.236623   155A      1.271686  
     156A      1.272734   157A      1.318725   158A      1.319768  
     159A      1.357683   160A      1.358731   161A      1.389942  
     162A      1.390986   163A      1.411977   164A      1.413025  
     165A      1.462289   166A      1.463339   167A      1.467480  
     168A      1.468531   169A      1.545546   170A      1.546595  
     171A      1.634568   172A      1.635614   173A      1.649433  
     174A      1.650485   175A      1.714621   176A      1.715671  
     177A      1.755323   178A      1.756373   179A      1.772419  
     180A      1.773472   181A      1.847546   182A      1.848591  
     183A      1.865036   184A      1.866087   185A      1.883356  
     186A      1.884409   187A      1.965978   188A      1.967033  
     189A      1.978961   190A      1.980006   191A      2.025824  
     192A      2.026874   193A      2.037161   194A      2.038209  
     195A      2.122365   196A      2.123413   197A      2.171578  
     198A      2.172631   199A      2.192663   200A      2.193713  
     201A      2.244305   202A      2.245352   203A      2.253169  
     204A      2.254219   205A      2.271867   206A      2.272915  
     207A      2.311770   208A      2.312818   209A      2.379137  
     210A      2.380190   211A      2.429851   212A      2.430900  
     213A      2.438195   214A      2.439245   215A      2.535830  
     216A      2.536883   217A      2.623103   218A      2.624153  
     219A      2.651845   220A      2.652894   221A      2.783209  
     222A      2.784255   223A      2.833173   224A      2.834226  
     225A      2.885656   226A      2.886706   227A      2.973819  
     228A      2.974870   229A      3.001134   230A      3.002191  
     231A      3.015840   232A      3.016891   233A      3.178452  
     234A      3.179505   235A      3.345631   236A      3.346678  
     237A      3.666218   238A      3.667273   239A      3.689935  
     240A      3.690990   241A      3.735947   242A      3.736999  
     243A      3.759157   244A      3.760202   245A      3.789824  
     246A      3.790872   247A      3.804746   248A      3.805792  
     249A      3.899921   250A      3.900972   251A      4.049869  
     252A      4.050917   253A      4.141836   254A      4.142884  
     255A      4.309466   256A      4.310521  

    Final Occupation by Irrep:
              A 
    DOCC [    32 ]

  @DF-RHF Final Energy:  -455.68819190899126

   => Energetics <=

    Nuclear Repulsion Energy =            270.0385331350719866
    One-Electron Energy =               -1158.5827122567211518
    Two-Electron Energy =                 432.8559872126579648
    Total Energy =                       -455.6881919089912572

Computation Completed


Properties will be evaluated at   0.000000,   0.000000,   0.000000 [a0]

Properties computed using the SCF density matrix

  Nuclear Dipole Moment: [e a0]
     X:  1010.1322      Y:  -118.7200      Z:   125.3340

  Electronic Dipole Moment: [e a0]
     X: -1008.4743      Y:   118.7194      Z:  -125.5003

  Dipole Moment: [e a0]
     X:     1.6579      Y:    -0.0006      Z:    -0.1663     Total:     1.6662

  Dipole Moment: [D]
     X:     4.2139      Y:    -0.0016      Z:    -0.4228     Total:     4.2351


*** tstop() called on ds1 at Wed Sep  1 14:16:57 2021
Module time:
	user time   =      14.24 seconds =       0.24 minutes
	system time =       0.40 seconds =       0.01 minutes
	total time  =          4 seconds =       0.07 minutes
Total time:
	user time   =      14.24 seconds =       0.24 minutes
	system time =       0.40 seconds =       0.01 minutes
	total time  =          4 seconds =       0.07 minutes

  //>>>>>>>>>>>>>>>>>>>>>>>>>>>>>>>>>>>//
  //            Monomer A HF           //
  //<<<<<<<<<<<<<<<<<<<<<<<<<<<<<<<<<<<//


*** tstart() called on ds1
*** at Wed Sep  1 14:16:57 2021

   => Loading Basis Set <=

    Name: AUG-CC-PVDZ
    Role: ORBITAL
    Keyword: BASIS
    atoms 1-2, 9-10  entry O          line   254 file /theoryfs2/ds/csargent/miniconda3/envs/cle/share/psi4/basis/aug-cc-pvdz.gbs 
    atoms 3-6, 11-14 entry H          line    40 file /theoryfs2/ds/csargent/miniconda3/envs/cle/share/psi4/basis/aug-cc-pvdz.gbs 
    atoms 7-8, 15-16 entry C          line   182 file /theoryfs2/ds/csargent/miniconda3/envs/cle/share/psi4/basis/aug-cc-pvdz.gbs 


         ---------------------------------------------------------
                                   SCF
               by Justin Turney, Rob Parrish, Andy Simmonett
                          and Daniel G. A. Smith
                              RHF Reference
                        6 Threads,   6675 MiB Core
         ---------------------------------------------------------

  ==> Geometry <==

    Molecular point group: c1
    Full point group: C1

    Geometry (in Bohr), charge = 0, multiplicity = 1:

       Center              X                  Y                   Z               Mass       
    ------------   -----------------  -----------------  -----------------  -----------------
         O           -5.531022370000     2.939402900000     1.977626240000    15.994914619570
         O           -2.407088860000     0.908177340000     0.049059090000    15.994914619570
         H           -0.503048870000     1.375792050000     4.638809080000     1.007825032230
         H            0.000000000000     4.251042850000     3.090722380000     1.007825032230
         H           -2.389482150000     4.019167790000     5.401950410000     1.007825032230
         H           -3.747714110000     0.471479300000    -1.215575120000     1.007825032230
         C           -1.418597820000     2.985005000000     3.844051900000    12.000000000000
         C           -3.322637810000     2.286288140000     1.912214130000    12.000000000000
      Gh(O)          32.197643180000    -6.649403940000     1.977626240000    15.994914619570
      Gh(O)          35.321576690000    -4.618178370000     0.049059090000    15.994914619570
      Gh(H)          37.225616680000    -5.085793090000     4.638809080000     1.007825032230
      Gh(H)          37.728665550000    -7.961043890000     3.090722380000     1.007825032230
      Gh(H)          35.339183400000    -7.729168830000     5.401950410000     1.007825032230
      Gh(H)          33.980951440000    -4.181480330000    -1.215575120000     1.007825032230
      Gh(C)          36.310067730000    -6.695006040000     3.844051900000    12.000000000000
      Gh(C)          34.406027740000    -5.996289180000     1.912214130000    12.000000000000

  Running in c1 symmetry.

  Rotational constants: A =      0.07574  B =      0.00080  C =      0.00080 [cm^-1]
  Rotational constants: A =   2270.58138  B =     24.00939  C =     23.85359 [MHz]
  Nuclear repulsion =  121.748430210971620

  Charge       = 0
  Multiplicity = 1
  Electrons    = 32
  Nalpha       = 16
  Nbeta        = 16

  ==> Algorithm <==

  SCF Algorithm Type is DF.
  DIIS enabled.
  MOM disabled.
  Fractional occupation disabled.
  Guess Type is SAD.
  Energy threshold   = 1.00e-10
  Density threshold  = 1.00e-10
  Integral threshold = 1.00e-12

  ==> Primary Basis <==

  Basis Set: AUG-CC-PVDZ
    Blend: AUG-CC-PVDZ
    Number of shells: 112
    Number of basis functions: 256
    Number of Cartesian functions: 272
    Spherical Harmonics?: true
    Max angular momentum: 2

   => Loading Basis Set <=

    Name: (AUG-CC-PVDZ AUX)
    Role: JKFIT
    Keyword: DF_BASIS_SCF
    atoms 1-2, 9-10  entry O          line   270 file /theoryfs2/ds/csargent/miniconda3/envs/cle/share/psi4/basis/aug-cc-pvdz-jkfit.gbs 
    atoms 3-6, 11-14 entry H          line    70 file /theoryfs2/ds/csargent/miniconda3/envs/cle/share/psi4/basis/aug-cc-pvdz-jkfit.gbs 
    atoms 7-8, 15-16 entry C          line   154 file /theoryfs2/ds/csargent/miniconda3/envs/cle/share/psi4/basis/aug-cc-pvdz-jkfit.gbs 

  ==> Integral Setup <==

  ==> DiskDFJK: Density-Fitted J/K Matrices <==

    J tasked:                  Yes
    K tasked:                  Yes
    wK tasked:                  No
    OpenMP threads:              6
    Integrals threads:           6
    Memory [MiB]:             5006
    Algorithm:                Core
    Integral Cache:           LOAD
    Schwarz Cutoff:          1E-12
    Fitting Condition:       1E-10

   => Auxiliary Basis Set <=

  Basis Set: (AUG-CC-PVDZ AUX)
    Blend: AUG-CC-PVDZ-JKFIT
    Number of shells: 320
    Number of basis functions: 944
    Number of Cartesian functions: 1088
    Spherical Harmonics?: true
    Max angular momentum: 3

  Minimum eigenvalue in the overlap matrix is 1.0277546076E-04.
  Reciprocal condition number of the overlap matrix is 9.6539162162E-06.
    Using symmetric orthogonalization.

  ==> Pre-Iterations <==

  SCF Guess: Superposition of Atomic Densities via on-the-fly atomic UHF (no occupation information).

   -------------------------
    Irrep   Nso     Nmo    
   -------------------------
     A        256     256 
   -------------------------
    Total     256     256
   -------------------------

  ==> Iterations <==

                           Total Energy        Delta E     RMS |[F,P]|

   @DF-RHF iter SAD:  -226.98992942905326   -2.26990e+02   0.00000e+00 
   @DF-RHF iter   1:  -227.68091167934151   -6.90982e-01   2.28211e-03 DIIS
   @DF-RHF iter   2:  -227.80091445261309   -1.20003e-01   1.32478e-03 DIIS
   @DF-RHF iter   3:  -227.84131987204546   -4.04054e-02   2.33581e-04 DIIS
   @DF-RHF iter   4:  -227.84355633559326   -2.23646e-03   1.03339e-04 DIIS
   @DF-RHF iter   5:  -227.84403723660037   -4.80901e-04   2.42136e-05 DIIS
   @DF-RHF iter   6:  -227.84407440459847   -3.71680e-05   1.17797e-05 DIIS
   @DF-RHF iter   7:  -227.84408419272430   -9.78813e-06   3.84272e-06 DIIS
   @DF-RHF iter   8:  -227.84408577431125   -1.58159e-06   1.01577e-06 DIIS
   @DF-RHF iter   9:  -227.84408589096137   -1.16650e-07   2.12954e-07 DIIS
   @DF-RHF iter  10:  -227.84408589478221   -3.82084e-09   5.61608e-08 DIIS
   @DF-RHF iter  11:  -227.84408589498562   -2.03414e-10   1.80147e-08 DIIS
   @DF-RHF iter  12:  -227.84408589500765   -2.20268e-11   4.26466e-09 DIIS
   @DF-RHF iter  13:  -227.84408589500936   -1.70530e-12   8.93569e-10 DIIS
   @DF-RHF iter  14:  -227.84408589500913    2.27374e-13   2.86710e-10 DIIS
   @DF-RHF iter  15:  -227.84408589500904    8.52651e-14   1.08058e-10 DIIS
   @DF-RHF iter  16:  -227.84408589500916   -1.13687e-13   2.86097e-11 DIIS
  Energy and wave function converged.


  ==> Post-Iterations <==

    Orbital Energies [Eh]
    ---------------------

    Doubly Occupied:                                                      

       1A    -20.629476     2A    -20.552804     3A    -11.396108  
       4A    -11.250979     5A     -1.475853     6A     -1.357486  
       7A     -1.032999     8A     -0.837930     9A     -0.703065  
      10A     -0.688465    11A     -0.657749    12A     -0.576538  
      13A     -0.569697    14A     -0.561403    15A     -0.475343  
      16A     -0.452434  

    Virtual:                                                              

      17A      0.024308    18A      0.032214    19A      0.045627  
      20A      0.046364    21A      0.055084    22A      0.055123  
      23A      0.056045    24A      0.064645    25A      0.084912  
      26A      0.098769    27A      0.104131    28A      0.111716  
      29A      0.116939    30A      0.117323    31A      0.117857  
      32A      0.139914    33A      0.140545    34A      0.140913  
      35A      0.146396    36A      0.151976    37A      0.156356  
      38A      0.164577    39A      0.171320    40A      0.175890  
      41A      0.196303    42A      0.205147    43A      0.209237  
      44A      0.214118    45A      0.225818    46A      0.233376  
      47A      0.234963    48A      0.243544    49A      0.259755  
      50A      0.264329    51A      0.270849    52A      0.276163  
      53A      0.284963    54A      0.290295    55A      0.295802  
      56A      0.319834    57A      0.322781    58A      0.331846  
      59A      0.335796    60A      0.347275    61A      0.368984  
      62A      0.370652    63A      0.378870    64A      0.394119  
      65A      0.398852    66A      0.401429    67A      0.409339  
      68A      0.426690    69A      0.430685    70A      0.437471  
      71A      0.438217    72A      0.442006    73A      0.459975  
      74A      0.475555    75A      0.489765    76A      0.492357  
      77A      0.496831    78A      0.516053    79A      0.524763  
      80A      0.537262    81A      0.541294    82A      0.543126  
      83A      0.553487    84A      0.559185    85A      0.569740  
      86A      0.583791    87A      0.586364    88A      0.602101  
      89A      0.615847    90A      0.618231    91A      0.635784  
      92A      0.636603    93A      0.640311    94A      0.649301  
      95A      0.666705    96A      0.674671    97A      0.684210  
      98A      0.689492    99A      0.697190   100A      0.700367  
     101A      0.703571   102A      0.727683   103A      0.733289  
     104A      0.742748   105A      0.753176   106A      0.759873  
     107A      0.786703   108A      0.798460   109A      0.815335  
     110A      0.819659   111A      0.847788   112A      0.853581  
     113A      0.876833   114A      0.887744   115A      0.895951  
     116A      0.912403   117A      0.947149   118A      0.949697  
     119A      0.954375   120A      0.957659   121A      0.975440  
     122A      0.983144   123A      1.037483   124A      1.041547  
     125A      1.044719   126A      1.088819   127A      1.101839  
     128A      1.105948   129A      1.118367   130A      1.157520  
     131A      1.162081   132A      1.172141   133A      1.176359  
     134A      1.190406   135A      1.236033   136A      1.260147  
     137A      1.269741   138A      1.272187   139A      1.319230  
     140A      1.329092   141A      1.358181   142A      1.383592  
     143A      1.390440   144A      1.395774   145A      1.412451  
     146A      1.434165   147A      1.457867   148A      1.462795  
     149A      1.467163   150A      1.467976   151A      1.469042  
     152A      1.537062   153A      1.546014   154A      1.568811  
     155A      1.635048   156A      1.649915   157A      1.683238  
     158A      1.715101   159A      1.716987   160A      1.755800  
     161A      1.772884   162A      1.799499   163A      1.848039  
     164A      1.865503   165A      1.882463   166A      1.883811  
     167A      1.936601   168A      1.966454   169A      1.979453  
     170A      2.026298   171A      2.037642   172A      2.070342  
     173A      2.122848   174A      2.172049   175A      2.193137  
     176A      2.244771   177A      2.250474   178A      2.253643  
     179A      2.264544   180A      2.272354   181A      2.273516  
     182A      2.302576   183A      2.312246   184A      2.336194  
     185A      2.338715   186A      2.361726   187A      2.376108  
     188A      2.379604   189A      2.430330   190A      2.438663  
     191A      2.466727   192A      2.505415   193A      2.536303  
     194A      2.585561   195A      2.623585   196A      2.652307  
     197A      2.664267   198A      2.697928   199A      2.753961  
     200A      2.783681   201A      2.785801   202A      2.823822  
     203A      2.833647   204A      2.886121   205A      2.915598  
     206A      2.974291   207A      3.001602   208A      3.016316  
     209A      3.042328   210A      3.178935   211A      3.182057  
     212A      3.278236   213A      3.310332   214A      3.346124  
     215A      3.356519   216A      3.431130   217A      3.486356  
     218A      3.662421   219A      3.666705   220A      3.690423  
     221A      3.736441   222A      3.739723   223A      3.759662  
     224A      3.790324   225A      3.805251   226A      3.900417  
     227A      4.025745   228A      4.050368   229A      4.142340  
     230A      4.153341   231A      4.309953   232A      4.504591  
     233A      4.616557   234A      4.724603   235A      4.925567  
     236A      4.969407   237A      4.977680   238A      5.001317  
     239A      5.016536   240A      5.033421   241A      5.052180  
     242A      5.221682   243A      5.243886   244A      5.614915  
     245A      5.660904   246A      5.791012   247A      5.868709  
     248A      6.052475   249A      6.228522   250A      6.520482  
     251A      6.789966   252A      7.092648   253A     18.345958  
     254A     18.940456   255A     33.525203   256A     33.563282  

    Final Occupation by Irrep:
              A 
    DOCC [    16 ]

  @DF-RHF Final Energy:  -227.84408589500916

   => Energetics <=

    Nuclear Repulsion Energy =            121.7484302109716197
    One-Electron Energy =                -552.7483714379899311
    Two-Electron Energy =                 203.1558553320091676
    Total Energy =                       -227.8440858950091581

Computation Completed


Properties will be evaluated at   0.000000,   0.000000,   0.000000 [a0]

Properties computed using the SCF density matrix

  Nuclear Dipole Moment: [e a0]
     X:   -98.5925      Y:    72.5259      Z:    62.6670

  Electronic Dipole Moment: [e a0]
     X:    99.4206      Y:   -72.8088      Z:   -62.7502

  Dipole Moment: [e a0]
     X:     0.8281      Y:    -0.2829      Z:    -0.0832     Total:     0.8790

  Dipole Moment: [D]
     X:     2.1048      Y:    -0.7191      Z:    -0.2116     Total:     2.2342


*** tstop() called on ds1 at Wed Sep  1 14:16:59 2021
Module time:
	user time   =      10.36 seconds =       0.17 minutes
	system time =       0.18 seconds =       0.00 minutes
	total time  =          2 seconds =       0.03 minutes
Total time:
	user time   =      24.76 seconds =       0.41 minutes
	system time =       0.58 seconds =       0.01 minutes
	total time  =          6 seconds =       0.10 minutes

  //>>>>>>>>>>>>>>>>>>>>>>>>>>>>>>>>>>>//
  //            Monomer B HF           //
  //<<<<<<<<<<<<<<<<<<<<<<<<<<<<<<<<<<<//


*** tstart() called on ds1
*** at Wed Sep  1 14:16:59 2021

   => Loading Basis Set <=

    Name: AUG-CC-PVDZ
    Role: ORBITAL
    Keyword: BASIS
    atoms 1-2, 9-10  entry O          line   254 file /theoryfs2/ds/csargent/miniconda3/envs/cle/share/psi4/basis/aug-cc-pvdz.gbs 
    atoms 3-6, 11-14 entry H          line    40 file /theoryfs2/ds/csargent/miniconda3/envs/cle/share/psi4/basis/aug-cc-pvdz.gbs 
    atoms 7-8, 15-16 entry C          line   182 file /theoryfs2/ds/csargent/miniconda3/envs/cle/share/psi4/basis/aug-cc-pvdz.gbs 


         ---------------------------------------------------------
                                   SCF
               by Justin Turney, Rob Parrish, Andy Simmonett
                          and Daniel G. A. Smith
                              RHF Reference
                        6 Threads,   6675 MiB Core
         ---------------------------------------------------------

  ==> Geometry <==

    Molecular point group: c1
    Full point group: C1

    Geometry (in Bohr), charge = 0, multiplicity = 1:

       Center              X                  Y                   Z               Mass       
    ------------   -----------------  -----------------  -----------------  -----------------
      Gh(O)          -5.531022370000     2.939402900000     1.977626240000    15.994914619570
      Gh(O)          -2.407088860000     0.908177340000     0.049059090000    15.994914619570
      Gh(H)          -0.503048870000     1.375792050000     4.638809080000     1.007825032230
      Gh(H)           0.000000000000     4.251042850000     3.090722380000     1.007825032230
      Gh(H)          -2.389482150000     4.019167790000     5.401950410000     1.007825032230
      Gh(H)          -3.747714110000     0.471479300000    -1.215575120000     1.007825032230
      Gh(C)          -1.418597820000     2.985005000000     3.844051900000    12.000000000000
      Gh(C)          -3.322637810000     2.286288140000     1.912214130000    12.000000000000
         O           32.197643180000    -6.649403940000     1.977626240000    15.994914619570
         O           35.321576690000    -4.618178370000     0.049059090000    15.994914619570
         H           37.225616680000    -5.085793090000     4.638809080000     1.007825032230
         H           37.728665550000    -7.961043890000     3.090722380000     1.007825032230
         H           35.339183400000    -7.729168830000     5.401950410000     1.007825032230
         H           33.980951440000    -4.181480330000    -1.215575120000     1.007825032230
         C           36.310067730000    -6.695006040000     3.844051900000    12.000000000000
         C           34.406027740000    -5.996289180000     1.912214130000    12.000000000000

  Running in c1 symmetry.

  Rotational constants: A =      0.07574  B =      0.00080  C =      0.00080 [cm^-1]
  Rotational constants: A =   2270.58138  B =     24.00939  C =     23.85359 [MHz]
  Nuclear repulsion =  121.748430130422278

  Charge       = 0
  Multiplicity = 1
  Electrons    = 32
  Nalpha       = 16
  Nbeta        = 16

  ==> Algorithm <==

  SCF Algorithm Type is DF.
  DIIS enabled.
  MOM disabled.
  Fractional occupation disabled.
  Guess Type is SAD.
  Energy threshold   = 1.00e-10
  Density threshold  = 1.00e-10
  Integral threshold = 1.00e-12

  ==> Primary Basis <==

  Basis Set: AUG-CC-PVDZ
    Blend: AUG-CC-PVDZ
    Number of shells: 112
    Number of basis functions: 256
    Number of Cartesian functions: 272
    Spherical Harmonics?: true
    Max angular momentum: 2

   => Loading Basis Set <=

    Name: (AUG-CC-PVDZ AUX)
    Role: JKFIT
    Keyword: DF_BASIS_SCF
    atoms 1-2, 9-10  entry O          line   270 file /theoryfs2/ds/csargent/miniconda3/envs/cle/share/psi4/basis/aug-cc-pvdz-jkfit.gbs 
    atoms 3-6, 11-14 entry H          line    70 file /theoryfs2/ds/csargent/miniconda3/envs/cle/share/psi4/basis/aug-cc-pvdz-jkfit.gbs 
    atoms 7-8, 15-16 entry C          line   154 file /theoryfs2/ds/csargent/miniconda3/envs/cle/share/psi4/basis/aug-cc-pvdz-jkfit.gbs 

  ==> Integral Setup <==

  ==> DiskDFJK: Density-Fitted J/K Matrices <==

    J tasked:                  Yes
    K tasked:                  Yes
    wK tasked:                  No
    OpenMP threads:              6
    Integrals threads:           6
    Memory [MiB]:             5006
    Algorithm:                Core
    Integral Cache:           LOAD
    Schwarz Cutoff:          1E-12
    Fitting Condition:       1E-10

   => Auxiliary Basis Set <=

  Basis Set: (AUG-CC-PVDZ AUX)
    Blend: AUG-CC-PVDZ-JKFIT
    Number of shells: 320
    Number of basis functions: 944
    Number of Cartesian functions: 1088
    Spherical Harmonics?: true
    Max angular momentum: 3

  Minimum eigenvalue in the overlap matrix is 1.0277546076E-04.
  Reciprocal condition number of the overlap matrix is 9.6539162162E-06.
    Using symmetric orthogonalization.

  ==> Pre-Iterations <==

  SCF Guess: Superposition of Atomic Densities via on-the-fly atomic UHF (no occupation information).

   -------------------------
    Irrep   Nso     Nmo    
   -------------------------
     A        256     256 
   -------------------------
    Total     256     256
   -------------------------

  ==> Iterations <==

                           Total Energy        Delta E     RMS |[F,P]|

   @DF-RHF iter SAD:  -226.98992942252272   -2.26990e+02   0.00000e+00 
   @DF-RHF iter   1:  -227.68091168182877   -6.90982e-01   2.28211e-03 DIIS
   @DF-RHF iter   2:  -227.80091445473394   -1.20003e-01   1.32478e-03 DIIS
   @DF-RHF iter   3:  -227.84131987397205   -4.04054e-02   2.33581e-04 DIIS
   @DF-RHF iter   4:  -227.84355633751775   -2.23646e-03   1.03339e-04 DIIS
   @DF-RHF iter   5:  -227.84403723852196   -4.80901e-04   2.42136e-05 DIIS
   @DF-RHF iter   6:  -227.84407440651910   -3.71680e-05   1.17797e-05 DIIS
   @DF-RHF iter   7:  -227.84408419464515   -9.78813e-06   3.84272e-06 DIIS
   @DF-RHF iter   8:  -227.84408577623185   -1.58159e-06   1.01577e-06 DIIS
   @DF-RHF iter   9:  -227.84408589288199   -1.16650e-07   2.12953e-07 DIIS
   @DF-RHF iter  10:  -227.84408589670289   -3.82090e-09   5.61608e-08 DIIS
   @DF-RHF iter  11:  -227.84408589690617   -2.03272e-10   1.80147e-08 DIIS
   @DF-RHF iter  12:  -227.84408589692839   -2.22258e-11   4.26466e-09 DIIS
   @DF-RHF iter  13:  -227.84408589692998   -1.59162e-12   8.93569e-10 DIIS
   @DF-RHF iter  14:  -227.84408589692987    1.13687e-13   2.86710e-10 DIIS
   @DF-RHF iter  15:  -227.84408589693001   -1.42109e-13   1.08058e-10 DIIS
   @DF-RHF iter  16:  -227.84408589692973    2.84217e-13   2.86097e-11 DIIS
  Energy and wave function converged.


  ==> Post-Iterations <==

    Orbital Energies [Eh]
    ---------------------

    Doubly Occupied:                                                      

       1A    -20.629476     2A    -20.552804     3A    -11.396108  
       4A    -11.250979     5A     -1.475853     6A     -1.357486  
       7A     -1.032999     8A     -0.837930     9A     -0.703065  
      10A     -0.688465    11A     -0.657749    12A     -0.576538  
      13A     -0.569697    14A     -0.561403    15A     -0.475343  
      16A     -0.452434  

    Virtual:                                                              

      17A      0.025361    18A      0.032214    19A      0.045627  
      20A      0.047378    21A      0.055084    22A      0.056203  
      23A      0.057088    24A      0.064645    25A      0.085925  
      26A      0.098769    27A      0.105212    28A      0.112759  
      29A      0.117323    30A      0.117857    31A      0.117988  
      32A      0.140545    33A      0.140924    34A      0.141980  
      35A      0.147437    36A      0.151976    37A      0.156356  
      38A      0.164577    39A      0.171320    40A      0.176950  
      41A      0.196303    42A      0.206210    43A      0.209237  
      44A      0.215189    45A      0.226855    46A      0.233376  
      47A      0.234963    48A      0.244581    49A      0.260791  
      50A      0.265389    51A      0.270849    52A      0.277185  
      53A      0.286032    54A      0.290295    55A      0.295802  
      56A      0.319834    57A      0.322781    58A      0.332884  
      59A      0.336864    60A      0.347275    61A      0.370027  
      62A      0.370652    63A      0.378870    64A      0.394119  
      65A      0.399893    66A      0.401429    67A      0.410398  
      68A      0.426690    69A      0.431737    70A      0.438218  
      71A      0.438524    72A      0.442006    73A      0.461033  
      74A      0.475555    75A      0.490815    76A      0.492357  
      77A      0.497881    78A      0.517098    79A      0.524763  
      80A      0.537262    81A      0.542349    82A      0.544173  
      83A      0.553487    84A      0.560228    85A      0.569740  
      86A      0.583791    87A      0.587426    88A      0.602101  
      89A      0.616903    90A      0.618231    91A      0.636836  
      92A      0.637647    93A      0.640311    94A      0.649301  
      95A      0.666705    96A      0.675718    97A      0.684210  
      98A      0.690539    99A      0.697190   100A      0.701409  
     101A      0.703571   102A      0.728735   103A      0.733289  
     104A      0.742748   105A      0.754217   106A      0.760919  
     107A      0.787761   108A      0.798460   109A      0.816388  
     110A      0.820708   111A      0.848848   112A      0.853581  
     113A      0.876833   114A      0.888780   115A      0.897005  
     116A      0.912403   117A      0.948198   118A      0.949697  
     119A      0.954375   120A      0.958708   121A      0.976490  
     122A      0.983144   123A      1.038527   124A      1.041547  
     125A      1.045769   126A      1.088819   127A      1.101839  
     128A      1.106996   129A      1.118367   130A      1.157520  
     131A      1.163129   132A      1.172141   133A      1.176359  
     134A      1.191460   135A      1.236033   136A      1.261193  
     137A      1.270786   138A      1.272187   139A      1.319230  
     140A      1.330142   141A      1.358181   142A      1.384634  
     143A      1.390440   144A      1.396827   145A      1.412451  
     146A      1.435206   147A      1.458919   148A      1.462795  
     149A      1.467976   150A      1.468213   151A      1.470092  
     152A      1.538110   153A      1.546014   154A      1.569858  
     155A      1.635048   156A      1.649915   157A      1.684287  
     158A      1.715101   159A      1.718032   160A      1.755800  
     161A      1.772884   162A      1.800547   163A      1.848039  
     164A      1.865503   165A      1.883514   166A      1.883811  
     167A      1.937656   168A      1.966454   169A      1.979453  
     170A      2.026298   171A      2.037642   172A      2.071386  
     173A      2.122848   174A      2.172049   175A      2.193137  
     176A      2.244771   177A      2.251509   178A      2.253643  
     179A      2.265604   180A      2.272354   181A      2.274566  
     182A      2.303631   183A      2.312246   184A      2.337231  
     185A      2.339780   186A      2.362784   187A      2.377156  
     188A      2.379604   189A      2.430330   190A      2.438663  
     191A      2.467772   192A      2.506467   193A      2.536303  
     194A      2.586605   195A      2.623585   196A      2.652307  
     197A      2.665319   198A      2.698984   199A      2.755015  
     200A      2.783681   201A      2.786851   202A      2.824865  
     203A      2.833647   204A      2.886121   205A      2.916653  
     206A      2.974291   207A      3.001602   208A      3.016316  
     209A      3.043378   210A      3.178935   211A      3.183104  
     212A      3.279290   213A      3.311379   214A      3.346124  
     215A      3.357568   216A      3.432178   217A      3.487404  
     218A      3.663469   219A      3.666705   220A      3.690423  
     221A      3.736441   222A      3.740776   223A      3.759662  
     224A      3.790324   225A      3.805251   226A      3.900417  
     227A      4.026787   228A      4.050368   229A      4.142340  
     230A      4.154398   231A      4.309953   232A      4.505632  
     233A      4.617609   234A      4.725649   235A      4.926610  
     236A      4.970449   237A      4.978736   238A      5.002356  
     239A      5.017589   240A      5.034477   241A      5.053226  
     242A      5.222729   243A      5.244939   244A      5.615978  
     245A      5.661957   246A      5.792063   247A      5.869750  
     248A      6.053518   249A      6.229559   250A      6.521541  
     251A      6.791019   252A      7.093693   253A     18.347007  
     254A     18.941504   255A     33.526238   256A     33.564344  

    Final Occupation by Irrep:
              A 
    DOCC [    16 ]

  @DF-RHF Final Energy:  -227.84408589692973

   => Energetics <=

    Nuclear Repulsion Energy =            121.7484301304222782
    One-Electron Energy =                -552.7483712880264193
    Two-Electron Energy =                 203.1558552606744286
    Total Energy =                       -227.8440858969297267

Computation Completed


Properties will be evaluated at   0.000000,   0.000000,   0.000000 [a0]

Properties computed using the SCF density matrix

  Nuclear Dipole Moment: [e a0]
     X:  1108.7247      Y:  -191.2459      Z:    62.6670

  Electronic Dipole Moment: [e a0]
     X: -1107.8967      Y:   191.5288      Z:   -62.7502

  Dipole Moment: [e a0]
     X:     0.8281      Y:     0.2829      Z:    -0.0832     Total:     0.8790

  Dipole Moment: [D]
     X:     2.1048      Y:     0.7191      Z:    -0.2116     Total:     2.2342


*** tstop() called on ds1 at Wed Sep  1 14:17:01 2021
Module time:
	user time   =      10.48 seconds =       0.17 minutes
	system time =       0.19 seconds =       0.00 minutes
	total time  =          2 seconds =       0.03 minutes
Total time:
	user time   =      35.26 seconds =       0.59 minutes
	system time =       0.78 seconds =       0.01 minutes
	total time  =          8 seconds =       0.13 minutes
  Constructing Basis Sets for SAPT...

   => Loading Basis Set <=

    Name: (AUG-CC-PVDZ AUX)
    Role: RIFIT
    Keyword: DF_BASIS_SAPT
    atoms 1-2, 9-10  entry O          line   204 file /theoryfs2/ds/csargent/miniconda3/envs/cle/share/psi4/basis/aug-cc-pvdz-ri.gbs 
    atoms 3-6, 11-14 entry H          line    30 file /theoryfs2/ds/csargent/miniconda3/envs/cle/share/psi4/basis/aug-cc-pvdz-ri.gbs 
    atoms 7-8, 15-16 entry C          line   112 file /theoryfs2/ds/csargent/miniconda3/envs/cle/share/psi4/basis/aug-cc-pvdz-ri.gbs 


  //>>>>>>>>>>>>>>>>>>>>>>>>>>>>>>>>>>>//
  //               SAPT0               //
  //<<<<<<<<<<<<<<<<<<<<<<<<<<<<<<<<<<<//


*** tstart() called on ds1
*** at Wed Sep  1 14:17:02 2021

        SAPT0  
    Ed Hohenstein
     6 June 2009

      Orbital Information
  --------------------------
    NSO        =       256
    NMO        =       256
    NRI        =       760
    NOCC A     =        16
    NOCC B     =        16
    FOCC A     =         4
    FOCC B     =         4
    NVIR A     =       240
    NVIR B     =       240

    Elst10,r            =    -0.000020075604 [Eh]
    Exch10              =    -0.000000000000 [Eh]
    Exch10 (S^2)        =    -0.000000000000 [Eh]

    Iter     Energy [mEh]          dE [mEh]         Residual      Time [s]
       1      -0.00001746       0.000017458       0.042676582             0
       2      -0.00001723      -0.000000230       0.013769564             0
       3      -0.00001910       0.000001872       0.004777593             0
       4      -0.00001937       0.000000270       0.001554792             0
       5      -0.00001928      -0.000000091       0.000775001             0
       6      -0.00001926      -0.000000021       0.000206772             0
       7      -0.00001927       0.000000008       0.000058849             1
       8      -0.00001927       0.000000002       0.000013769             1
       9      -0.00001927      -0.000000000       0.000003903             1
      10      -0.00001927      -0.000000000       0.000001170             1
      11      -0.00001927       0.000000000       0.000000438             1

    CHF Iterations converged


    Iter     Energy [mEh]          dE [mEh]         Residual      Time [s]
       1      -0.00000764       0.000007644       0.029635371             0
       2      -0.00000759      -0.000000059       0.009645634             0
       3      -0.00000854       0.000000953       0.003528706             0
       4      -0.00000865       0.000000113       0.001206189             0
       5      -0.00000859      -0.000000058       0.000401448             0
       6      -0.00000859      -0.000000001       0.000131041             0
       7      -0.00000860       0.000000003       0.000038668             0
       8      -0.00000860       0.000000000       0.000009902             0
       9      -0.00000860      -0.000000000       0.000002811             0
      10      -0.00000860      -0.000000000       0.000000666             1

    CHF Iterations converged

    Ind20,r (A<-B)      =    -0.000000019269 [Eh]
    Ind20,r (B<-A)      =    -0.000000008596 [Eh]
    Ind20,r             =    -0.000000027865 [Eh]
    Exch-Ind20,r (A<-B) =     0.000000000000 [Eh]
    Exch-Ind20,r (B<-A) =     0.000000000000 [Eh]
    Exch-Ind20,r        =     0.000000000000 [Eh]
    Disp20              =    -0.000000189492 [Eh]
    Disp20 (SS)         =    -0.000000094746 [Eh]
    Disp20 (OS)         =    -0.000000094746 [Eh]
    Exch-Disp20         =     0.000000000000 [Eh]
    Exch-Disp20 (SS)    =     0.000000000000 [Eh]
    Exch-Disp20 (OS)    =     0.000000000000 [Eh]

    SAPT Results 
  --------------------------------------------------------------------------------------------------------
    Electrostatics                 -0.02007560 [mEh]      -0.01259763 [kcal/mol]      -0.05270849 [kJ/mol]
      Elst10,r                     -0.02007560 [mEh]      -0.01259763 [kcal/mol]      -0.05270849 [kJ/mol]

    Exchange                       -0.00000000 [mEh]      -0.00000000 [kcal/mol]      -0.00000000 [kJ/mol]
      Exch10                       -0.00000000 [mEh]      -0.00000000 [kcal/mol]      -0.00000000 [kJ/mol]
      Exch10(S^2)                  -0.00000000 [mEh]      -0.00000000 [kcal/mol]      -0.00000000 [kJ/mol]

    Induction                      -0.00004145 [mEh]      -0.00002601 [kcal/mol]      -0.00010882 [kJ/mol]
      Ind20,r                      -0.00002786 [mEh]      -0.00001749 [kcal/mol]      -0.00007316 [kJ/mol]
      Exch-Ind20,r                  0.00000000 [mEh]       0.00000000 [kcal/mol]       0.00000000 [kJ/mol]
      delta HF,r (2)               -0.00001358 [mEh]      -0.00000852 [kcal/mol]      -0.00003566 [kJ/mol]

    Dispersion                     -0.00018949 [mEh]      -0.00011891 [kcal/mol]      -0.00049751 [kJ/mol]
      Disp20                       -0.00018949 [mEh]      -0.00011891 [kcal/mol]      -0.00049751 [kJ/mol]
      Exch-Disp20                   0.00000000 [mEh]       0.00000000 [kcal/mol]       0.00000000 [kJ/mol]
      Disp20 (SS)                  -0.00009475 [mEh]      -0.00005945 [kcal/mol]      -0.00024876 [kJ/mol]
      Disp20 (OS)                  -0.00009475 [mEh]      -0.00005945 [kcal/mol]      -0.00024876 [kJ/mol]
      Exch-Disp20 (SS)              0.00000000 [mEh]       0.00000000 [kcal/mol]       0.00000000 [kJ/mol]
      Exch-Disp20 (OS)              0.00000000 [mEh]       0.00000000 [kcal/mol]       0.00000000 [kJ/mol]

  Total HF                         -0.02011705 [mEh]      -0.01262364 [kcal/mol]      -0.05281731 [kJ/mol]
  Total SAPT0                      -0.02030654 [mEh]      -0.01274255 [kcal/mol]      -0.05331483 [kJ/mol]

  Special recipe for scaled SAPT0 (see Manual):
    Electrostatics sSAPT0          -0.02007560 [mEh]      -0.01259763 [kcal/mol]      -0.05270849 [kJ/mol]
    Exchange sSAPT0                -0.00000000 [mEh]      -0.00000000 [kcal/mol]      -0.00000000 [kJ/mol]
    Induction sSAPT0               -0.00004145 [mEh]      -0.00002601 [kcal/mol]      -0.00010882 [kJ/mol]
    Dispersion sSAPT0              -0.00018949 [mEh]      -0.00011891 [kcal/mol]      -0.00049751 [kJ/mol]
  Total sSAPT0                     -0.02030654 [mEh]      -0.01274255 [kcal/mol]      -0.05331483 [kJ/mol]
  --------------------------------------------------------------------------------------------------------

*** tstop() called on ds1 at Wed Sep  1 14:17:07 2021
Module time:
	user time   =      27.20 seconds =       0.45 minutes
	system time =       2.35 seconds =       0.04 minutes
	total time  =          5 seconds =       0.08 minutes
Total time:
	user time   =      63.28 seconds =       1.05 minutes
	system time =       3.16 seconds =       0.05 minutes
	total time  =         14 seconds =       0.23 minutes


Warning! sapt0 does not have an associated derived wavefunction.The returned wavefunction is the dimer SCF wavefunction.


    Psi4 stopped on: Wednesday, 01 September 2021 02:17PM
    Psi4 wall time for execution: 0:00:13.73

*** Psi4 exiting successfully. Buy a developer a beer!
