
    -----------------------------------------------------------------------
          Psi4: An Open-Source Ab Initio Electronic Structure Package
                               Psi4 1.4rc3 

                         Git: Rev {HEAD} 080dba6 


    D. G. A. Smith, L. A. Burns, A. C. Simmonett, R. M. Parrish,
    M. C. Schieber, R. Galvelis, P. Kraus, H. Kruse, R. Di Remigio,
    A. Alenaizan, A. M. James, S. Lehtola, J. P. Misiewicz, M. Scheurer,
    R. A. Shaw, J. B. Schriber, Y. Xie, Z. L. Glick, D. A. Sirianni,
    J. S. O'Brien, J. M. Waldrop, A. Kumar, E. G. Hohenstein,
    B. P. Pritchard, B. R. Brooks, H. F. Schaefer III, A. Yu. Sokolov,
    K. Patkowski, A. E. DePrince III, U. Bozkaya, R. A. King,
    F. A. Evangelista, J. M. Turney, T. D. Crawford, C. D. Sherrill,
    J. Chem. Phys. 152(18) 184108 (2020). https://doi.org/10.1063/5.0006002

                            Additional Code Authors
    E. T. Seidl, C. L. Janssen, E. F. Valeev, M. L. Leininger,
    J. F. Gonthier, R. M. Richard, H. R. McAlexander, M. Saitow, X. Wang,
    P. Verma, and M. H. Lechner

             Previous Authors, Complete List of Code Contributors,
                       and Citations for Specific Modules
    https://github.com/psi4/psi4/blob/master/codemeta.json
    https://github.com/psi4/psi4/graphs/contributors
    http://psicode.org/psi4manual/master/introduction.html#citing-psifour

    -----------------------------------------------------------------------


    Psi4 started on: Wednesday, 01 September 2021 01:28PM

    Process ID: 18458
    Host:       ds1
    PSIDATADIR: /theoryfs2/ds/csargent/miniconda3/envs/cle/share/psi4
    Memory:     500.0 MiB
    Threads:    6
    
  ==> Input File <==

--------------------------------------------------------------------------
# PSI4 file produced by CrystaLattE

# Generated from:               acetic_acid.xyz
# Psithon input for N-mer:      2mer-0+390
# Number of atoms per monomer:  [8, 8]
# Number of replicas:           2
# COM priority:                 1.497839593154e-05
# Minimum COM separations:      21.467 
# Separation priority:          2.115767416624e-05
# Minimum monomer separations:  19.133 
# Cutoff priority:              5.851814707590e-07
# Nuclear repulsion energy:     268.7606391088857

memory 7 GB

molecule Dimer_0_390 {
  O           -5.53102237       2.93940290       1.97762624 
  O           -2.40708886       0.90817734       0.04905909 
  H           -0.50304887       1.37579205       4.63880908 
  H            0.00000000       4.25104285       3.09072238 
  H           -2.38948215       4.01916779       5.40195041 
  H           -3.74771411       0.47147930      -1.21557512 
  C           -1.41859782       2.98500500       3.84405190 
  C           -3.32263781       2.28628814       1.91221413 
--
  O           19.62142133     -20.24810357     -19.82641174 
  O           22.74535484     -22.27932914     -21.75497890 
  H           24.64939483     -21.81171443     -17.16522890 
  H           25.15244370     -18.93646362     -18.71331560 
  H           22.76296155     -19.16833869     -16.40208757 
  H           21.40472959     -22.71602718     -23.01961310 
  C           23.73384588     -20.20250148     -17.95998608 
  C           21.82980589     -20.90121834     -19.89182385 
units = au
no_com
no_reorient
}

set {
  e_convergence 10
  d_convergence 10
  scf_type df
  mp2_type df
  cc_type df
  freeze_core true
}

energy('sapt0/aug-cc-pvdz')

--------------------------------------------------------------------------

  Memory set to   6.519 GiB by Python driver.

Scratch directory: /scratch/csargent/psi4.17562.33784/

Scratch directory: /scratch/csargent/psi4.17562.33784/

  //>>>>>>>>>>>>>>>>>>>>>>>>>>>>>>>>>>>//
  //              Dimer HF             //
  //<<<<<<<<<<<<<<<<<<<<<<<<<<<<<<<<<<<//


*** tstart() called on ds1
*** at Wed Sep  1 13:28:19 2021

   => Loading Basis Set <=

    Name: AUG-CC-PVDZ
    Role: ORBITAL
    Keyword: BASIS
    atoms 1-2, 9-10  entry O          line   254 file /theoryfs2/ds/csargent/miniconda3/envs/cle/share/psi4/basis/aug-cc-pvdz.gbs 
    atoms 3-6, 11-14 entry H          line    40 file /theoryfs2/ds/csargent/miniconda3/envs/cle/share/psi4/basis/aug-cc-pvdz.gbs 
    atoms 7-8, 15-16 entry C          line   182 file /theoryfs2/ds/csargent/miniconda3/envs/cle/share/psi4/basis/aug-cc-pvdz.gbs 


         ---------------------------------------------------------
                                   SCF
               by Justin Turney, Rob Parrish, Andy Simmonett
                          and Daniel G. A. Smith
                              RHF Reference
                        6 Threads,   6675 MiB Core
         ---------------------------------------------------------

  ==> Geometry <==

    Molecular point group: c1
    Full point group: C1

    Geometry (in Bohr), charge = 0, multiplicity = 1:

       Center              X                  Y                   Z               Mass       
    ------------   -----------------  -----------------  -----------------  -----------------
         O           -5.531022370000     2.939402900000     1.977626240000    15.994914619570
         O           -2.407088860000     0.908177340000     0.049059090000    15.994914619570
         H           -0.503048870000     1.375792050000     4.638809080000     1.007825032230
         H            0.000000000000     4.251042850000     3.090722380000     1.007825032230
         H           -2.389482150000     4.019167790000     5.401950410000     1.007825032230
         H           -3.747714110000     0.471479300000    -1.215575120000     1.007825032230
         C           -1.418597820000     2.985005000000     3.844051900000    12.000000000000
         C           -3.322637810000     2.286288140000     1.912214130000    12.000000000000
         O           19.621421330000   -20.248103570000   -19.826411740000    15.994914619570
         O           22.745354840000   -22.279329140000   -21.754978900000    15.994914619570
         H           24.649394830000   -21.811714430000   -17.165228900000     1.007825032230
         H           25.152443700000   -18.936463620000   -18.713315600000     1.007825032230
         H           22.762961550000   -19.168338690000   -16.402087570000     1.007825032230
         H           21.404729590000   -22.716027180000   -23.019613100000     1.007825032230
         C           23.733845880000   -20.202501480000   -17.959986080000    12.000000000000
         C           21.829805890000   -20.901218340000   -19.891823850000    12.000000000000

  Running in c1 symmetry.

  Rotational constants: A =      0.14660  B =      0.00075  C =      0.00074 [cm^-1]
  Rotational constants: A =   4395.02320  B =     22.41664  C =     22.30975 [MHz]
  Nuclear repulsion =  268.760639002643131

  Charge       = 0
  Multiplicity = 1
  Electrons    = 64
  Nalpha       = 32
  Nbeta        = 32

  ==> Algorithm <==

  SCF Algorithm Type is DF.
  DIIS enabled.
  MOM disabled.
  Fractional occupation disabled.
  Guess Type is SAD.
  Energy threshold   = 1.00e-10
  Density threshold  = 1.00e-10
  Integral threshold = 1.00e-12

  ==> Primary Basis <==

  Basis Set: AUG-CC-PVDZ
    Blend: AUG-CC-PVDZ
    Number of shells: 112
    Number of basis functions: 256
    Number of Cartesian functions: 272
    Spherical Harmonics?: true
    Max angular momentum: 2

   => Loading Basis Set <=

    Name: (AUG-CC-PVDZ AUX)
    Role: JKFIT
    Keyword: DF_BASIS_SCF
    atoms 1-2, 9-10  entry O          line   270 file /theoryfs2/ds/csargent/miniconda3/envs/cle/share/psi4/basis/aug-cc-pvdz-jkfit.gbs 
    atoms 3-6, 11-14 entry H          line    70 file /theoryfs2/ds/csargent/miniconda3/envs/cle/share/psi4/basis/aug-cc-pvdz-jkfit.gbs 
    atoms 7-8, 15-16 entry C          line   154 file /theoryfs2/ds/csargent/miniconda3/envs/cle/share/psi4/basis/aug-cc-pvdz-jkfit.gbs 

  ==> Integral Setup <==

  ==> DiskDFJK: Density-Fitted J/K Matrices <==

    J tasked:                  Yes
    K tasked:                  Yes
    wK tasked:                  No
    OpenMP threads:              6
    Integrals threads:           6
    Memory [MiB]:             5006
    Algorithm:                Core
    Integral Cache:           SAVE
    Schwarz Cutoff:          1E-12
    Fitting Condition:       1E-10

   => Auxiliary Basis Set <=

  Basis Set: (AUG-CC-PVDZ AUX)
    Blend: AUG-CC-PVDZ-JKFIT
    Number of shells: 320
    Number of basis functions: 944
    Number of Cartesian functions: 1088
    Spherical Harmonics?: true
    Max angular momentum: 3

  Minimum eigenvalue in the overlap matrix is 1.0277546727E-04.
  Reciprocal condition number of the overlap matrix is 9.6539168281E-06.
    Using symmetric orthogonalization.

  ==> Pre-Iterations <==

  SCF Guess: Superposition of Atomic Densities via on-the-fly atomic UHF (no occupation information).

   -------------------------
    Irrep   Nso     Nmo    
   -------------------------
     A        256     256 
   -------------------------
    Total     256     256
   -------------------------

  ==> Iterations <==

                           Total Energy        Delta E     RMS |[F,P]|

   @DF-RHF iter SAD:  -453.97985884768462   -4.53980e+02   0.00000e+00 
   @DF-RHF iter   1:  -455.36185672868169   -1.38200e+00   3.22732e-03 DIIS
   @DF-RHF iter   2:  -455.60185962918780   -2.40003e-01   1.87332e-03 DIIS
   @DF-RHF iter   3:  -455.68265299322434   -8.07934e-02   3.30246e-04 DIIS
   @DF-RHF iter   4:  -455.68712460971892   -4.47162e-03   1.46104e-04 DIIS
   @DF-RHF iter   5:  -455.68808594082788   -9.61331e-04   3.42324e-05 DIIS
   @DF-RHF iter   6:  -455.68816024654456   -7.43057e-05   1.66578e-05 DIIS
   @DF-RHF iter   7:  -455.68817981577473   -1.95692e-05   5.43371e-06 DIIS
   @DF-RHF iter   8:  -455.68818297885525   -3.16308e-06   1.43640e-06 DIIS
   @DF-RHF iter   9:  -455.68818321211381   -2.33259e-07   3.01068e-07 DIIS
   @DF-RHF iter  10:  -455.68818321974982   -7.63600e-09   7.93977e-08 DIIS
   @DF-RHF iter  11:  -455.68818322015721   -4.07397e-10   2.54731e-08 DIIS
   @DF-RHF iter  12:  -455.68818322020070   -4.34852e-11   6.03446e-09 DIIS
   @DF-RHF iter  13:  -455.68818322020383   -3.12639e-12   1.28559e-09 DIIS
   @DF-RHF iter  14:  -455.68818322020394   -1.13687e-13   4.85527e-10 DIIS
   @DF-RHF iter  15:  -455.68818322020400   -5.68434e-14   1.97853e-10 DIIS
   @DF-RHF iter  16:  -455.68818322020388    1.13687e-13   5.77150e-11 DIIS
  Energy and wave function converged.


  ==> Post-Iterations <==

    Orbital Energies [Eh]
    ---------------------

    Doubly Occupied:                                                      

       1A    -20.629830     2A    -20.628943     3A    -20.553181  
       4A    -20.552316     5A    -11.396484     6A    -11.395620  
       7A    -11.251362     8A    -11.250520     9A     -1.476214  
      10A     -1.475335    11A     -1.357859    12A     -1.356989  
      13A     -1.033378    14A     -1.032527    15A     -0.838292  
      16A     -0.837417    17A     -0.703437    18A     -0.702566  
      19A     -0.688836    20A     -0.687973    21A     -0.658116  
      22A     -0.657250    23A     -0.576908    24A     -0.576041  
      25A     -0.570068    26A     -0.569212    27A     -0.561787  
      28A     -0.560940    29A     -0.475717    30A     -0.474848  
      31A     -0.452812    32A     -0.451948  

    Virtual:                                                              

      33A      0.031878    34A      0.032753    35A      0.045287  
      36A      0.046185    37A      0.054737    38A      0.055547  
      39A      0.064187    40A      0.065028    41A      0.098390  
      42A      0.099236    43A      0.116963    44A      0.117495  
      45A      0.117814    46A      0.118345    47A      0.140174  
      48A      0.141054    49A      0.151625    50A      0.152487  
      51A      0.155963    52A      0.156792    53A      0.164192  
      54A      0.165037    55A      0.170945    56A      0.171801  
      57A      0.195932    58A      0.196790    59A      0.208899  
      60A      0.209799    61A      0.233023    62A      0.233898  
      63A      0.234586    64A      0.235465    65A      0.270458  
      66A      0.271308    67A      0.289905    68A      0.290781  
      69A      0.295435    70A      0.296292    71A      0.319481  
      72A      0.320360    73A      0.322403    74A      0.323258  
      75A      0.346900    76A      0.347749    77A      0.370269  
      78A      0.371131    79A      0.378503    80A      0.379349  
      81A      0.393741    82A      0.394606    83A      0.401056  
      84A      0.401910    85A      0.426328    86A      0.427195  
      87A      0.437844    88A      0.438699    89A      0.441635  
      90A      0.442479    91A      0.475194    92A      0.476077  
      93A      0.491989    94A      0.492836    95A      0.524385  
      96A      0.525230    97A      0.536867    98A      0.537721  
      99A      0.553118   100A      0.553971   101A      0.569352  
     102A      0.570203   103A      0.583410   104A      0.584255  
     105A      0.601744   106A      0.602629   107A      0.617859  
     108A      0.618722   109A      0.639945   110A      0.640803  
     111A      0.648925   112A      0.649778   113A      0.666339  
     114A      0.667189   115A      0.683830   116A      0.684688  
     117A      0.696811   118A      0.697661   119A      0.703190  
     120A      0.704032   121A      0.732917   122A      0.733771  
     123A      0.742371   124A      0.743222   125A      0.798077  
     126A      0.798918   127A      0.853211   128A      0.854077  
     129A      0.876460   130A      0.877330   131A      0.912029  
     132A      0.912899   133A      0.949328   134A      0.950189  
     135A      0.954005   136A      0.954871   137A      0.982774  
     138A      0.983640   139A      1.041181   140A      1.042047  
     141A      1.088438   142A      1.089282   143A      1.101461  
     144A      1.102306   145A      1.117986   146A      1.118842  
     147A      1.157158   148A      1.158038   149A      1.171778  
     150A      1.172649   151A      1.175987   152A      1.176848  
     153A      1.235675   154A      1.236552   155A      1.271814  
     156A      1.272680   157A      1.318851   158A      1.319718  
     159A      1.357802   160A      1.358672   161A      1.390056  
     162A      1.390915   163A      1.412072   164A      1.412922  
     165A      1.462423   166A      1.463296   167A      1.467613  
     168A      1.468495   169A      1.545634   170A      1.546486  
     171A      1.634678   172A      1.635544   173A      1.649547  
     174A      1.650413   175A      1.714730   176A      1.715593  
     177A      1.755425   178A      1.756282   179A      1.772503  
     180A      1.773349   181A      1.847662   182A      1.848521  
     183A      1.865128   184A      1.865981   185A      1.883430  
     186A      1.884271   187A      1.966091   188A      1.966964  
     189A      1.979081   190A      1.979950   191A      2.025921  
     192A      2.026776   193A      2.037274   194A      2.038140  
     195A      2.122478   196A      2.123345   197A      2.171680  
     198A      2.172541   199A      2.192763   200A      2.193621  
     201A      2.244390   202A      2.245240   203A      2.253271  
     204A      2.254130   205A      2.271978   206A      2.272837  
     207A      2.311875   208A      2.312739   209A      2.379229  
     210A      2.380080   211A      2.429965   212A      2.430835  
     213A      2.438288   214A      2.439141   215A      2.535927  
     216A      2.536780   217A      2.623211   218A      2.624073  
     219A      2.651924   220A      2.652767   221A      2.783301  
     222A      2.784155   223A      2.833273   224A      2.834132  
     225A      2.885744   226A      2.886592   227A      2.973926  
     228A      2.974791   229A      3.001230   230A      3.002085  
     231A      3.015943   232A      3.016804   233A      3.178569  
     234A      3.179438   235A      3.345751   236A      3.346617  
     237A      3.666349   238A      3.667233   239A      3.690068  
     240A      3.690952   241A      3.736076   242A      3.736955  
     243A      3.759286   244A      3.760154   245A      3.789953  
     246A      3.790824   247A      3.804876   248A      3.805743  
     249A      3.900051   250A      3.900929   251A      4.049996  
     252A      4.050869   253A      4.141967   254A      4.142837  
     255A      4.309598   256A      4.310482  

    Final Occupation by Irrep:
              A 
    DOCC [    32 ]

  @DF-RHF Final Energy:  -455.68818322020388

   => Energetics <=

    Nuclear Repulsion Energy =            268.7606390026431313
    One-Electron Energy =               -1156.0281918394566674
    Two-Electron Energy =                 431.5793696166097106
    Total Energy =                       -455.6881832202038822

Computation Completed


Properties will be evaluated at   0.000000,   0.000000,   0.000000 [a0]

Properties computed using the SCF density matrix

  Nuclear Dipole Moment: [e a0]
     X:   607.6931      Y:  -596.9484      Z:  -572.3952

  Electronic Dipole Moment: [e a0]
     X:  -606.0365      Y:   596.3817      Z:   572.2277

  Dipole Moment: [e a0]
     X:     1.6566      Y:    -0.5667      Z:    -0.1676     Total:     1.7589

  Dipole Moment: [D]
     X:     4.2107      Y:    -1.4404      Z:    -0.4259     Total:     4.4706


*** tstop() called on ds1 at Wed Sep  1 13:28:23 2021
Module time:
	user time   =      14.21 seconds =       0.24 minutes
	system time =       0.44 seconds =       0.01 minutes
	total time  =          4 seconds =       0.07 minutes
Total time:
	user time   =      14.21 seconds =       0.24 minutes
	system time =       0.44 seconds =       0.01 minutes
	total time  =          4 seconds =       0.07 minutes

  //>>>>>>>>>>>>>>>>>>>>>>>>>>>>>>>>>>>//
  //            Monomer A HF           //
  //<<<<<<<<<<<<<<<<<<<<<<<<<<<<<<<<<<<//


*** tstart() called on ds1
*** at Wed Sep  1 13:28:23 2021

   => Loading Basis Set <=

    Name: AUG-CC-PVDZ
    Role: ORBITAL
    Keyword: BASIS
    atoms 1-2, 9-10  entry O          line   254 file /theoryfs2/ds/csargent/miniconda3/envs/cle/share/psi4/basis/aug-cc-pvdz.gbs 
    atoms 3-6, 11-14 entry H          line    40 file /theoryfs2/ds/csargent/miniconda3/envs/cle/share/psi4/basis/aug-cc-pvdz.gbs 
    atoms 7-8, 15-16 entry C          line   182 file /theoryfs2/ds/csargent/miniconda3/envs/cle/share/psi4/basis/aug-cc-pvdz.gbs 


         ---------------------------------------------------------
                                   SCF
               by Justin Turney, Rob Parrish, Andy Simmonett
                          and Daniel G. A. Smith
                              RHF Reference
                        6 Threads,   6675 MiB Core
         ---------------------------------------------------------

  ==> Geometry <==

    Molecular point group: c1
    Full point group: C1

    Geometry (in Bohr), charge = 0, multiplicity = 1:

       Center              X                  Y                   Z               Mass       
    ------------   -----------------  -----------------  -----------------  -----------------
         O           -5.531022370000     2.939402900000     1.977626240000    15.994914619570
         O           -2.407088860000     0.908177340000     0.049059090000    15.994914619570
         H           -0.503048870000     1.375792050000     4.638809080000     1.007825032230
         H            0.000000000000     4.251042850000     3.090722380000     1.007825032230
         H           -2.389482150000     4.019167790000     5.401950410000     1.007825032230
         H           -3.747714110000     0.471479300000    -1.215575120000     1.007825032230
         C           -1.418597820000     2.985005000000     3.844051900000    12.000000000000
         C           -3.322637810000     2.286288140000     1.912214130000    12.000000000000
      Gh(O)          19.621421330000   -20.248103570000   -19.826411740000    15.994914619570
      Gh(O)          22.745354840000   -22.279329140000   -21.754978900000    15.994914619570
      Gh(H)          24.649394830000   -21.811714430000   -17.165228900000     1.007825032230
      Gh(H)          25.152443700000   -18.936463620000   -18.713315600000     1.007825032230
      Gh(H)          22.762961550000   -19.168338690000   -16.402087570000     1.007825032230
      Gh(H)          21.404729590000   -22.716027180000   -23.019613100000     1.007825032230
      Gh(C)          23.733845880000   -20.202501480000   -17.959986080000    12.000000000000
      Gh(C)          21.829805890000   -20.901218340000   -19.891823850000    12.000000000000

  Running in c1 symmetry.

  Rotational constants: A =      0.14660  B =      0.00075  C =      0.00074 [cm^-1]
  Rotational constants: A =   4395.02320  B =     22.41664  C =     22.30975 [MHz]
  Nuclear repulsion =  121.748430210971620

  Charge       = 0
  Multiplicity = 1
  Electrons    = 32
  Nalpha       = 16
  Nbeta        = 16

  ==> Algorithm <==

  SCF Algorithm Type is DF.
  DIIS enabled.
  MOM disabled.
  Fractional occupation disabled.
  Guess Type is SAD.
  Energy threshold   = 1.00e-10
  Density threshold  = 1.00e-10
  Integral threshold = 1.00e-12

  ==> Primary Basis <==

  Basis Set: AUG-CC-PVDZ
    Blend: AUG-CC-PVDZ
    Number of shells: 112
    Number of basis functions: 256
    Number of Cartesian functions: 272
    Spherical Harmonics?: true
    Max angular momentum: 2

   => Loading Basis Set <=

    Name: (AUG-CC-PVDZ AUX)
    Role: JKFIT
    Keyword: DF_BASIS_SCF
    atoms 1-2, 9-10  entry O          line   270 file /theoryfs2/ds/csargent/miniconda3/envs/cle/share/psi4/basis/aug-cc-pvdz-jkfit.gbs 
    atoms 3-6, 11-14 entry H          line    70 file /theoryfs2/ds/csargent/miniconda3/envs/cle/share/psi4/basis/aug-cc-pvdz-jkfit.gbs 
    atoms 7-8, 15-16 entry C          line   154 file /theoryfs2/ds/csargent/miniconda3/envs/cle/share/psi4/basis/aug-cc-pvdz-jkfit.gbs 

  ==> Integral Setup <==

  ==> DiskDFJK: Density-Fitted J/K Matrices <==

    J tasked:                  Yes
    K tasked:                  Yes
    wK tasked:                  No
    OpenMP threads:              6
    Integrals threads:           6
    Memory [MiB]:             5006
    Algorithm:                Core
    Integral Cache:           LOAD
    Schwarz Cutoff:          1E-12
    Fitting Condition:       1E-10

   => Auxiliary Basis Set <=

  Basis Set: (AUG-CC-PVDZ AUX)
    Blend: AUG-CC-PVDZ-JKFIT
    Number of shells: 320
    Number of basis functions: 944
    Number of Cartesian functions: 1088
    Spherical Harmonics?: true
    Max angular momentum: 3

  Minimum eigenvalue in the overlap matrix is 1.0277546727E-04.
  Reciprocal condition number of the overlap matrix is 9.6539168281E-06.
    Using symmetric orthogonalization.

  ==> Pre-Iterations <==

  SCF Guess: Superposition of Atomic Densities via on-the-fly atomic UHF (no occupation information).

   -------------------------
    Irrep   Nso     Nmo    
   -------------------------
     A        256     256 
   -------------------------
    Total     256     256
   -------------------------

  ==> Iterations <==

                           Total Energy        Delta E     RMS |[F,P]|

   @DF-RHF iter SAD:  -226.98992942890129   -2.26990e+02   0.00000e+00 
   @DF-RHF iter   1:  -227.68091168064095   -6.90982e-01   2.28211e-03 DIIS
   @DF-RHF iter   2:  -227.80091445379549   -1.20003e-01   1.32478e-03 DIIS
   @DF-RHF iter   3:  -227.84131987316113   -4.04054e-02   2.33581e-04 DIIS
   @DF-RHF iter   4:  -227.84355633671575   -2.23646e-03   1.03339e-04 DIIS
   @DF-RHF iter   5:  -227.84403723772323   -4.80901e-04   2.42136e-05 DIIS
   @DF-RHF iter   6:  -227.84407440572164   -3.71680e-05   1.17797e-05 DIIS
   @DF-RHF iter   7:  -227.84408419384766   -9.78813e-06   3.84272e-06 DIIS
   @DF-RHF iter   8:  -227.84408577543454   -1.58159e-06   1.01577e-06 DIIS
   @DF-RHF iter   9:  -227.84408589208482   -1.16650e-07   2.12954e-07 DIIS
   @DF-RHF iter  10:  -227.84408589590510   -3.82028e-09   5.61608e-08 DIIS
   @DF-RHF iter  11:  -227.84408589610862   -2.03528e-10   1.80147e-08 DIIS
   @DF-RHF iter  12:  -227.84408589613025   -2.16289e-11   4.26466e-09 DIIS
   @DF-RHF iter  13:  -227.84408589613204   -1.79057e-12   8.93569e-10 DIIS
   @DF-RHF iter  14:  -227.84408589613213   -8.52651e-14   2.86711e-10 DIIS
   @DF-RHF iter  15:  -227.84408589613199    1.42109e-13   1.08058e-10 DIIS
   @DF-RHF iter  16:  -227.84408589613227   -2.84217e-13   2.86098e-11 DIIS
  Energy and wave function converged.


  ==> Post-Iterations <==

    Orbital Energies [Eh]
    ---------------------

    Doubly Occupied:                                                      

       1A    -20.629476     2A    -20.552804     3A    -11.396108  
       4A    -11.250979     5A     -1.475853     6A     -1.357486  
       7A     -1.032999     8A     -0.837930     9A     -0.703065  
      10A     -0.688465    11A     -0.657749    12A     -0.576538  
      13A     -0.569697    14A     -0.561403    15A     -0.475343  
      16A     -0.452434  

    Virtual:                                                              

      17A      0.024401    18A      0.032214    19A      0.045627  
      20A      0.046486    21A      0.055084    22A      0.055194  
      23A      0.056101    24A      0.064645    25A      0.085025  
      26A      0.098769    27A      0.104248    28A      0.111830  
      29A      0.116974    30A      0.117323    31A      0.117857  
      32A      0.139997    33A      0.140545    34A      0.140997  
      35A      0.146466    36A      0.151976    37A      0.156356  
      38A      0.164577    39A      0.171320    40A      0.176010  
      41A      0.196303    42A      0.205281    43A      0.209237  
      44A      0.214250    45A      0.225939    46A      0.233376  
      47A      0.234963    48A      0.243676    49A      0.259895  
      50A      0.264461    51A      0.270849    52A      0.276294  
      53A      0.285084    54A      0.290295    55A      0.295802  
      56A      0.319834    57A      0.322781    58A      0.331905  
      59A      0.335869    60A      0.347275    61A      0.369057  
      62A      0.370652    63A      0.378870    64A      0.394119  
      65A      0.398913    66A      0.401429    67A      0.409409  
      68A      0.426690    69A      0.430777    70A      0.437550  
      71A      0.438218    72A      0.442006    73A      0.460122  
      74A      0.475555    75A      0.489883    76A      0.492357  
      77A      0.496943    78A      0.516167    79A      0.524763  
      80A      0.537262    81A      0.541430    82A      0.543203  
      83A      0.553487    84A      0.559274    85A      0.569740  
      86A      0.583791    87A      0.586445    88A      0.602101  
      89A      0.615968    90A      0.618231    91A      0.635886  
      92A      0.636708    93A      0.640311    94A      0.649301  
      95A      0.666705    96A      0.674778    97A      0.684210  
      98A      0.689577    99A      0.697190   100A      0.700448  
     101A      0.703571   102A      0.727748   103A      0.733289  
     104A      0.742748   105A      0.753272   106A      0.759941  
     107A      0.786793   108A      0.798460   109A      0.815405  
     110A      0.819732   111A      0.847868   112A      0.853581  
     113A      0.876833   114A      0.887820   115A      0.896052  
     116A      0.912403   117A      0.947247   118A      0.949697  
     119A      0.954375   120A      0.957757   121A      0.975546  
     122A      0.983144   123A      1.037600   124A      1.041547  
     125A      1.044843   126A      1.088819   127A      1.101839  
     128A      1.106057   129A      1.118367   130A      1.157520  
     131A      1.162213   132A      1.172141   133A      1.176359  
     134A      1.190534   135A      1.236033   136A      1.260289  
     137A      1.269883   138A      1.272187   139A      1.319230  
     140A      1.329221   141A      1.358181   142A      1.383733  
     143A      1.390440   144A      1.395910   145A      1.412451  
     146A      1.434300   147A      1.458011   148A      1.462795  
     149A      1.467298   150A      1.467976   151A      1.469175  
     152A      1.537193   153A      1.546014   154A      1.568945  
     155A      1.635048   156A      1.649915   157A      1.683359  
     158A      1.715101   159A      1.717116   160A      1.755800  
     161A      1.772884   162A      1.799632   163A      1.848039  
     164A      1.865503   165A      1.882515   166A      1.883811  
     167A      1.936676   168A      1.966454   169A      1.979453  
     170A      2.026298   171A      2.037642   172A      2.070420  
     173A      2.122848   174A      2.172049   175A      2.193137  
     176A      2.244771   177A      2.250536   178A      2.253643  
     179A      2.264609   180A      2.272354   181A      2.273638  
     182A      2.302647   183A      2.312246   184A      2.336246  
     185A      2.338783   186A      2.361809   187A      2.376215  
     188A      2.379604   189A      2.430330   190A      2.438663  
     191A      2.466842   192A      2.505550   193A      2.536303  
     194A      2.585664   195A      2.623585   196A      2.652307  
     197A      2.664378   198A      2.698005   199A      2.754035  
     200A      2.783681   201A      2.785883   202A      2.823895  
     203A      2.833647   204A      2.886121   205A      2.915705  
     206A      2.974291   207A      3.001602   208A      3.016316  
     209A      3.042421   210A      3.178935   211A      3.182143  
     212A      3.278314   213A      3.310419   214A      3.346124  
     215A      3.356603   216A      3.431236   217A      3.486430  
     218A      3.662524   219A      3.666705   220A      3.690423  
     221A      3.736441   222A      3.739855   223A      3.759662  
     224A      3.790324   225A      3.805251   226A      3.900417  
     227A      4.025870   228A      4.050368   229A      4.142340  
     230A      4.153483   231A      4.309953   232A      4.504729  
     233A      4.616690   234A      4.724693   235A      4.925709  
     236A      4.969543   237A      4.977819   238A      5.001462  
     239A      5.016671   240A      5.033555   241A      5.052257  
     242A      5.221796   243A      5.243983   244A      5.615053  
     245A      5.661040   246A      5.791154   247A      5.868846  
     248A      6.052613   249A      6.228661   250A      6.520621  
     251A      6.790105   252A      7.092787   253A     18.346047  
     254A     18.940551   255A     33.525346   256A     33.563423  

    Final Occupation by Irrep:
              A 
    DOCC [    16 ]

  @DF-RHF Final Energy:  -227.84408589613227

   => Energetics <=

    Nuclear Repulsion Energy =            121.7484302109716197
    One-Electron Energy =                -552.7483714429481552
    Two-Electron Energy =                 203.1558553358442794
    Total Energy =                       -227.8440858961322704

Computation Completed


Properties will be evaluated at   0.000000,   0.000000,   0.000000 [a0]

Properties computed using the SCF density matrix

  Nuclear Dipole Moment: [e a0]
     X:   -98.5925      Y:    72.5259      Z:    62.6670

  Electronic Dipole Moment: [e a0]
     X:    99.4206      Y:   -72.8088      Z:   -62.7502

  Dipole Moment: [e a0]
     X:     0.8281      Y:    -0.2829      Z:    -0.0832     Total:     0.8790

  Dipole Moment: [D]
     X:     2.1048      Y:    -0.7191      Z:    -0.2116     Total:     2.2342


*** tstop() called on ds1 at Wed Sep  1 13:28:25 2021
Module time:
	user time   =      10.18 seconds =       0.17 minutes
	system time =       0.18 seconds =       0.00 minutes
	total time  =          2 seconds =       0.03 minutes
Total time:
	user time   =      24.66 seconds =       0.41 minutes
	system time =       0.64 seconds =       0.01 minutes
	total time  =          6 seconds =       0.10 minutes

  //>>>>>>>>>>>>>>>>>>>>>>>>>>>>>>>>>>>//
  //            Monomer B HF           //
  //<<<<<<<<<<<<<<<<<<<<<<<<<<<<<<<<<<<//


*** tstart() called on ds1
*** at Wed Sep  1 13:28:25 2021

   => Loading Basis Set <=

    Name: AUG-CC-PVDZ
    Role: ORBITAL
    Keyword: BASIS
    atoms 1-2, 9-10  entry O          line   254 file /theoryfs2/ds/csargent/miniconda3/envs/cle/share/psi4/basis/aug-cc-pvdz.gbs 
    atoms 3-6, 11-14 entry H          line    40 file /theoryfs2/ds/csargent/miniconda3/envs/cle/share/psi4/basis/aug-cc-pvdz.gbs 
    atoms 7-8, 15-16 entry C          line   182 file /theoryfs2/ds/csargent/miniconda3/envs/cle/share/psi4/basis/aug-cc-pvdz.gbs 


         ---------------------------------------------------------
                                   SCF
               by Justin Turney, Rob Parrish, Andy Simmonett
                          and Daniel G. A. Smith
                              RHF Reference
                        6 Threads,   6675 MiB Core
         ---------------------------------------------------------

  ==> Geometry <==

    Molecular point group: c1
    Full point group: C1

    Geometry (in Bohr), charge = 0, multiplicity = 1:

       Center              X                  Y                   Z               Mass       
    ------------   -----------------  -----------------  -----------------  -----------------
      Gh(O)          -5.531022370000     2.939402900000     1.977626240000    15.994914619570
      Gh(O)          -2.407088860000     0.908177340000     0.049059090000    15.994914619570
      Gh(H)          -0.503048870000     1.375792050000     4.638809080000     1.007825032230
      Gh(H)           0.000000000000     4.251042850000     3.090722380000     1.007825032230
      Gh(H)          -2.389482150000     4.019167790000     5.401950410000     1.007825032230
      Gh(H)          -3.747714110000     0.471479300000    -1.215575120000     1.007825032230
      Gh(C)          -1.418597820000     2.985005000000     3.844051900000    12.000000000000
      Gh(C)          -3.322637810000     2.286288140000     1.912214130000    12.000000000000
         O           19.621421330000   -20.248103570000   -19.826411740000    15.994914619570
         O           22.745354840000   -22.279329140000   -21.754978900000    15.994914619570
         H           24.649394830000   -21.811714430000   -17.165228900000     1.007825032230
         H           25.152443700000   -18.936463620000   -18.713315600000     1.007825032230
         H           22.762961550000   -19.168338690000   -16.402087570000     1.007825032230
         H           21.404729590000   -22.716027180000   -23.019613100000     1.007825032230
         C           23.733845880000   -20.202501480000   -17.959986080000    12.000000000000
         C           21.829805890000   -20.901218340000   -19.891823850000    12.000000000000

  Running in c1 symmetry.

  Rotational constants: A =      0.14660  B =      0.00075  C =      0.00074 [cm^-1]
  Rotational constants: A =   4395.02320  B =     22.41664  C =     22.30975 [MHz]
  Nuclear repulsion =  121.748430065175398

  Charge       = 0
  Multiplicity = 1
  Electrons    = 32
  Nalpha       = 16
  Nbeta        = 16

  ==> Algorithm <==

  SCF Algorithm Type is DF.
  DIIS enabled.
  MOM disabled.
  Fractional occupation disabled.
  Guess Type is SAD.
  Energy threshold   = 1.00e-10
  Density threshold  = 1.00e-10
  Integral threshold = 1.00e-12

  ==> Primary Basis <==

  Basis Set: AUG-CC-PVDZ
    Blend: AUG-CC-PVDZ
    Number of shells: 112
    Number of basis functions: 256
    Number of Cartesian functions: 272
    Spherical Harmonics?: true
    Max angular momentum: 2

   => Loading Basis Set <=

    Name: (AUG-CC-PVDZ AUX)
    Role: JKFIT
    Keyword: DF_BASIS_SCF
    atoms 1-2, 9-10  entry O          line   270 file /theoryfs2/ds/csargent/miniconda3/envs/cle/share/psi4/basis/aug-cc-pvdz-jkfit.gbs 
    atoms 3-6, 11-14 entry H          line    70 file /theoryfs2/ds/csargent/miniconda3/envs/cle/share/psi4/basis/aug-cc-pvdz-jkfit.gbs 
    atoms 7-8, 15-16 entry C          line   154 file /theoryfs2/ds/csargent/miniconda3/envs/cle/share/psi4/basis/aug-cc-pvdz-jkfit.gbs 

  ==> Integral Setup <==

  ==> DiskDFJK: Density-Fitted J/K Matrices <==

    J tasked:                  Yes
    K tasked:                  Yes
    wK tasked:                  No
    OpenMP threads:              6
    Integrals threads:           6
    Memory [MiB]:             5006
    Algorithm:                Core
    Integral Cache:           LOAD
    Schwarz Cutoff:          1E-12
    Fitting Condition:       1E-10

   => Auxiliary Basis Set <=

  Basis Set: (AUG-CC-PVDZ AUX)
    Blend: AUG-CC-PVDZ-JKFIT
    Number of shells: 320
    Number of basis functions: 944
    Number of Cartesian functions: 1088
    Spherical Harmonics?: true
    Max angular momentum: 3

  Minimum eigenvalue in the overlap matrix is 1.0277546727E-04.
  Reciprocal condition number of the overlap matrix is 9.6539168281E-06.
    Using symmetric orthogonalization.

  ==> Pre-Iterations <==

  SCF Guess: Superposition of Atomic Densities via on-the-fly atomic UHF (no occupation information).

   -------------------------
    Irrep   Nso     Nmo    
   -------------------------
     A        256     256 
   -------------------------
    Total     256     256
   -------------------------

  ==> Iterations <==

                           Total Energy        Delta E     RMS |[F,P]|

   @DF-RHF iter SAD:  -226.98992941784820   -2.26990e+02   0.00000e+00 
   @DF-RHF iter   1:  -227.68091168052544   -6.90982e-01   2.28211e-03 DIIS
   @DF-RHF iter   2:  -227.80091445334349   -1.20003e-01   1.32478e-03 DIIS
   @DF-RHF iter   3:  -227.84131987293233   -4.04054e-02   2.33581e-04 DIIS
   @DF-RHF iter   4:  -227.84355633648548   -2.23646e-03   1.03339e-04 DIIS
   @DF-RHF iter   5:  -227.84403723749060   -4.80901e-04   2.42136e-05 DIIS
   @DF-RHF iter   6:  -227.84407440548804   -3.71680e-05   1.17797e-05 DIIS
   @DF-RHF iter   7:  -227.84408419361401   -9.78813e-06   3.84272e-06 DIIS
   @DF-RHF iter   8:  -227.84408577520088   -1.58159e-06   1.01577e-06 DIIS
   @DF-RHF iter   9:  -227.84408589185108   -1.16650e-07   2.12953e-07 DIIS
   @DF-RHF iter  10:  -227.84408589567153   -3.82045e-09   5.61608e-08 DIIS
   @DF-RHF iter  11:  -227.84408589587534   -2.03812e-10   1.80147e-08 DIIS
   @DF-RHF iter  12:  -227.84408589589697   -2.16289e-11   4.26466e-09 DIIS
   @DF-RHF iter  13:  -227.84408589589850   -1.53477e-12   8.93569e-10 DIIS
   @DF-RHF iter  14:  -227.84408589589867   -1.70530e-13   2.86710e-10 DIIS
   @DF-RHF iter  15:  -227.84408589589859    8.52651e-14   1.08058e-10 DIIS
   @DF-RHF iter  16:  -227.84408589589873   -1.42109e-13   2.86097e-11 DIIS
  Energy and wave function converged.


  ==> Post-Iterations <==

    Orbital Energies [Eh]
    ---------------------

    Doubly Occupied:                                                      

       1A    -20.629476     2A    -20.552804     3A    -11.396108  
       4A    -11.250979     5A     -1.475853     6A     -1.357486  
       7A     -1.032999     8A     -0.837930     9A     -0.703065  
      10A     -0.688465    11A     -0.657749    12A     -0.576538  
      13A     -0.569697    14A     -0.561403    15A     -0.475343  
      16A     -0.452434  

    Virtual:                                                              

      17A      0.025257    18A      0.032214    19A      0.045627  
      20A      0.047394    21A      0.055084    22A      0.056012  
      23A      0.056936    24A      0.064645    25A      0.085921  
      26A      0.098769    27A      0.105102    28A      0.112661  
      29A      0.117323    30A      0.117797    31A      0.117857  
      32A      0.140545    33A      0.140870    34A      0.141847  
      35A      0.147297    36A      0.151976    37A      0.156356  
      38A      0.164577    39A      0.171320    40A      0.176870  
      41A      0.196303    42A      0.206162    43A      0.209237  
      44A      0.215134    45A      0.226828    46A      0.233376  
      47A      0.234963    48A      0.244540    49A      0.260747  
      50A      0.265325    51A      0.270849    52A      0.277166  
      53A      0.285960    54A      0.290295    55A      0.295802  
      56A      0.319834    57A      0.322781    58A      0.332760  
      59A      0.336713    60A      0.347275    61A      0.369897  
      62A      0.370652    63A      0.378870    64A      0.394119  
      65A      0.399747    66A      0.401429    67A      0.410243  
      68A      0.426690    69A      0.431625    70A      0.438218  
      71A      0.438385    72A      0.442006    73A      0.461018  
      74A      0.475555    75A      0.490752    76A      0.492357  
      77A      0.497809    78A      0.517045    79A      0.524763  
      80A      0.537262    81A      0.542328    82A      0.544055  
      83A      0.553487    84A      0.560127    85A      0.569740  
      86A      0.583791    87A      0.587283    88A      0.602101  
      89A      0.616840    90A      0.618231    91A      0.636744  
      92A      0.637566    93A      0.640311    94A      0.649301  
      95A      0.666705    96A      0.675636    97A      0.684210  
      98A      0.690424    99A      0.697190   100A      0.701291  
     101A      0.703571   102A      0.728583   103A      0.733289  
     104A      0.742748   105A      0.754133   106A      0.760785  
     107A      0.787641   108A      0.798460   109A      0.816240  
     110A      0.820573   111A      0.848715   112A      0.853581  
     113A      0.876833   114A      0.888661   115A      0.896908  
     116A      0.912403   117A      0.948097   118A      0.949697  
     119A      0.954375   120A      0.958610   121A      0.976404  
     122A      0.983144   123A      1.038465   124A      1.041547  
     125A      1.045709   126A      1.088819   127A      1.101839  
     128A      1.106918   129A      1.118367   130A      1.157520  
     131A      1.163083   132A      1.172141   133A      1.176359  
     134A      1.191413   135A      1.236033   136A      1.261170  
     137A      1.270760   138A      1.272187   139A      1.319230  
     140A      1.330099   141A      1.358181   142A      1.384606  
     143A      1.390440   144A      1.396789   145A      1.412451  
     146A      1.435168   147A      1.458895   148A      1.462795  
     149A      1.467976   150A      1.468176   151A      1.470056  
     152A      1.538065   153A      1.546014   154A      1.569819  
     155A      1.635048   156A      1.649915   157A      1.684236  
     158A      1.715101   159A      1.717982   160A      1.755800  
     161A      1.772884   162A      1.800510   163A      1.848039  
     164A      1.865503   165A      1.883344   166A      1.883811  
     167A      1.937514   168A      1.966454   169A      1.979453  
     170A      2.026298   171A      2.037642   172A      2.071267  
     173A      2.122848   174A      2.172049   175A      2.193137  
     176A      2.244771   177A      2.251372   178A      2.253643  
     179A      2.265445   180A      2.272354   181A      2.274515  
     182A      2.303487   183A      2.312246   184A      2.337078  
     185A      2.339620   186A      2.362657   187A      2.377076  
     188A      2.379604   189A      2.430330   190A      2.438663  
     191A      2.467716   192A      2.506438   193A      2.536303  
     194A      2.586528   195A      2.623585   196A      2.652307  
     197A      2.665243   198A      2.698849   199A      2.754877  
     200A      2.783681   201A      2.786728   202A      2.824735  
     203A      2.833647   204A      2.886121   205A      2.916572  
     206A      2.974291   207A      3.001602   208A      3.016316  
     209A      3.043275   210A      3.178935   211A      3.182988  
     212A      3.279157   213A      3.311269   214A      3.346124  
     215A      3.357449   216A      3.432090   217A      3.487272  
     218A      3.663380   219A      3.666705   220A      3.690423  
     221A      3.736441   222A      3.740736   223A      3.759662  
     224A      3.790324   225A      3.805251   226A      3.900417  
     227A      4.026731   228A      4.050368   229A      4.142340  
     230A      4.154379   231A      4.309953   232A      4.505599  
     233A      4.617569   234A      4.725544   235A      4.926584  
     236A      4.970414   237A      4.978706   238A      5.002331  
     239A      5.017551   240A      5.034440   241A      5.053100  
     242A      5.222653   243A      5.244831   244A      5.615947  
     245A      5.661925   246A      5.792038   247A      5.869714  
     248A      6.053486   249A      6.229529   250A      6.521512  
     251A      6.790991   252A      7.093662   253A     18.346895  
     254A     18.941403   255A     33.526212   256A     33.564319  

    Final Occupation by Irrep:
              A 
    DOCC [    16 ]

  @DF-RHF Final Energy:  -227.84408589589873

   => Energetics <=

    Nuclear Repulsion Energy =            121.7484300651753983
    One-Electron Energy =                -552.7483711516454150
    Two-Electron Energy =                 203.1558551905712875
    Total Energy =                       -227.8440858958987292

Computation Completed


Properties will be evaluated at   0.000000,   0.000000,   0.000000 [a0]

Properties computed using the SCF density matrix

  Nuclear Dipole Moment: [e a0]
     X:   706.2856      Y:  -669.4743      Z:  -635.0622

  Electronic Dipole Moment: [e a0]
     X:  -705.4576      Y:   669.1914      Z:   634.9790

  Dipole Moment: [e a0]
     X:     0.8281      Y:    -0.2829      Z:    -0.0832     Total:     0.8790

  Dipole Moment: [D]
     X:     2.1048      Y:    -0.7191      Z:    -0.2116     Total:     2.2342


*** tstop() called on ds1 at Wed Sep  1 13:28:27 2021
Module time:
	user time   =      10.23 seconds =       0.17 minutes
	system time =       0.17 seconds =       0.00 minutes
	total time  =          2 seconds =       0.03 minutes
Total time:
	user time   =      35.12 seconds =       0.59 minutes
	system time =       0.82 seconds =       0.01 minutes
	total time  =          8 seconds =       0.13 minutes
  Constructing Basis Sets for SAPT...

   => Loading Basis Set <=

    Name: (AUG-CC-PVDZ AUX)
    Role: RIFIT
    Keyword: DF_BASIS_SAPT
    atoms 1-2, 9-10  entry O          line   204 file /theoryfs2/ds/csargent/miniconda3/envs/cle/share/psi4/basis/aug-cc-pvdz-ri.gbs 
    atoms 3-6, 11-14 entry H          line    30 file /theoryfs2/ds/csargent/miniconda3/envs/cle/share/psi4/basis/aug-cc-pvdz-ri.gbs 
    atoms 7-8, 15-16 entry C          line   112 file /theoryfs2/ds/csargent/miniconda3/envs/cle/share/psi4/basis/aug-cc-pvdz-ri.gbs 


  //>>>>>>>>>>>>>>>>>>>>>>>>>>>>>>>>>>>//
  //               SAPT0               //
  //<<<<<<<<<<<<<<<<<<<<<<<<<<<<<<<<<<<//


*** tstart() called on ds1
*** at Wed Sep  1 13:28:28 2021

        SAPT0  
    Ed Hohenstein
     6 June 2009

      Orbital Information
  --------------------------
    NSO        =       256
    NMO        =       256
    NRI        =       760
    NOCC A     =        16
    NOCC B     =        16
    FOCC A     =         4
    FOCC B     =         4
    NVIR A     =       240
    NVIR B     =       240

    Elst10,r            =    -0.000011395506 [Eh]
    Exch10              =    -0.000000000000 [Eh]
    Exch10 (S^2)        =    -0.000000000000 [Eh]

    Iter     Energy [mEh]          dE [mEh]         Residual      Time [s]
       1      -0.00001137       0.000011370       0.028214938             0
       2      -0.00001204       0.000000673       0.012436919             0
       3      -0.00001333       0.000001288       0.003317989             0
       4      -0.00001342       0.000000088       0.001095556             0
       5      -0.00001339      -0.000000029       0.000543628             0
       6      -0.00001337      -0.000000018       0.000149853             0
       7      -0.00001338       0.000000006       0.000051103             0
       8      -0.00001338       0.000000001       0.000012024             1
       9      -0.00001338      -0.000000000       0.000003158             1
      10      -0.00001338      -0.000000000       0.000000782             1

    CHF Iterations converged


    Iter     Energy [mEh]          dE [mEh]         Residual      Time [s]
       1      -0.00000426       0.000004259       0.018981737             0
       2      -0.00000434       0.000000082       0.007202685             0
       3      -0.00000481       0.000000474       0.002139758             0
       4      -0.00000487       0.000000051       0.000666791             0
       5      -0.00000485      -0.000000014       0.000371568             0
       6      -0.00000484      -0.000000007       0.000095351             0
       7      -0.00000485       0.000000003       0.000026333             0
       8      -0.00000485       0.000000000       0.000006199             0
       9      -0.00000485      -0.000000000       0.000001636             0
      10      -0.00000485      -0.000000000       0.000000424             0

    CHF Iterations converged

    Ind20,r (A<-B)      =    -0.000000013376 [Eh]
    Ind20,r (B<-A)      =    -0.000000004847 [Eh]
    Ind20,r             =    -0.000000018223 [Eh]
    Exch-Ind20,r (A<-B) =     0.000000000000 [Eh]
    Exch-Ind20,r (B<-A) =     0.000000000000 [Eh]
    Exch-Ind20,r        =     0.000000000000 [Eh]
    Disp20              =    -0.000000139538 [Eh]
    Disp20 (SS)         =    -0.000000069769 [Eh]
    Disp20 (OS)         =    -0.000000069769 [Eh]
    Exch-Disp20         =     0.000000000000 [Eh]
    Exch-Disp20 (SS)    =     0.000000000000 [Eh]
    Exch-Disp20 (OS)    =     0.000000000000 [Eh]

    SAPT Results 
  --------------------------------------------------------------------------------------------------------
    Electrostatics                 -0.01139551 [mEh]      -0.00715079 [kcal/mol]      -0.02991890 [kJ/mol]
      Elst10,r                     -0.01139551 [mEh]      -0.00715079 [kcal/mol]      -0.02991890 [kJ/mol]

    Exchange                       -0.00000000 [mEh]      -0.00000000 [kcal/mol]      -0.00000000 [kJ/mol]
      Exch10                       -0.00000000 [mEh]      -0.00000000 [kcal/mol]      -0.00000000 [kJ/mol]
      Exch10(S^2)                  -0.00000000 [mEh]      -0.00000000 [kcal/mol]      -0.00000000 [kJ/mol]

    Induction                      -0.00003267 [mEh]      -0.00002050 [kcal/mol]      -0.00008577 [kJ/mol]
      Ind20,r                      -0.00001822 [mEh]      -0.00001144 [kcal/mol]      -0.00004785 [kJ/mol]
      Exch-Ind20,r                  0.00000000 [mEh]       0.00000000 [kcal/mol]       0.00000000 [kJ/mol]
      delta HF,r (2)               -0.00001444 [mEh]      -0.00000906 [kcal/mol]      -0.00003792 [kJ/mol]

    Dispersion                     -0.00013954 [mEh]      -0.00008756 [kcal/mol]      -0.00036636 [kJ/mol]
      Disp20                       -0.00013954 [mEh]      -0.00008756 [kcal/mol]      -0.00036636 [kJ/mol]
      Exch-Disp20                   0.00000000 [mEh]       0.00000000 [kcal/mol]       0.00000000 [kJ/mol]
      Disp20 (SS)                  -0.00006977 [mEh]      -0.00004378 [kcal/mol]      -0.00018318 [kJ/mol]
      Disp20 (OS)                  -0.00006977 [mEh]      -0.00004378 [kcal/mol]      -0.00018318 [kJ/mol]
      Exch-Disp20 (SS)              0.00000000 [mEh]       0.00000000 [kcal/mol]       0.00000000 [kJ/mol]
      Exch-Disp20 (OS)              0.00000000 [mEh]       0.00000000 [kcal/mol]       0.00000000 [kJ/mol]

  Total HF                         -0.01142817 [mEh]      -0.00717129 [kcal/mol]      -0.03000466 [kJ/mol]
  Total SAPT0                      -0.01156771 [mEh]      -0.00725885 [kcal/mol]      -0.03037102 [kJ/mol]

  Special recipe for scaled SAPT0 (see Manual):
    Electrostatics sSAPT0          -0.01139551 [mEh]      -0.00715079 [kcal/mol]      -0.02991890 [kJ/mol]
    Exchange sSAPT0                -0.00000000 [mEh]      -0.00000000 [kcal/mol]      -0.00000000 [kJ/mol]
    Induction sSAPT0               -0.00003267 [mEh]      -0.00002050 [kcal/mol]      -0.00008577 [kJ/mol]
    Dispersion sSAPT0              -0.00013954 [mEh]      -0.00008756 [kcal/mol]      -0.00036636 [kJ/mol]
  Total sSAPT0                     -0.01156771 [mEh]      -0.00725885 [kcal/mol]      -0.03037102 [kJ/mol]
  --------------------------------------------------------------------------------------------------------

*** tstop() called on ds1 at Wed Sep  1 13:28:33 2021
Module time:
	user time   =      26.26 seconds =       0.44 minutes
	system time =       2.30 seconds =       0.04 minutes
	total time  =          5 seconds =       0.08 minutes
Total time:
	user time   =      62.09 seconds =       1.03 minutes
	system time =       3.14 seconds =       0.05 minutes
	total time  =         14 seconds =       0.23 minutes


Warning! sapt0 does not have an associated derived wavefunction.The returned wavefunction is the dimer SCF wavefunction.


    Psi4 stopped on: Wednesday, 01 September 2021 01:28PM
    Psi4 wall time for execution: 0:00:13.61

*** Psi4 exiting successfully. Buy a developer a beer!
