
    -----------------------------------------------------------------------
          Psi4: An Open-Source Ab Initio Electronic Structure Package
                               Psi4 1.4rc3 

                         Git: Rev {HEAD} 080dba6 


    D. G. A. Smith, L. A. Burns, A. C. Simmonett, R. M. Parrish,
    M. C. Schieber, R. Galvelis, P. Kraus, H. Kruse, R. Di Remigio,
    A. Alenaizan, A. M. James, S. Lehtola, J. P. Misiewicz, M. Scheurer,
    R. A. Shaw, J. B. Schriber, Y. Xie, Z. L. Glick, D. A. Sirianni,
    J. S. O'Brien, J. M. Waldrop, A. Kumar, E. G. Hohenstein,
    B. P. Pritchard, B. R. Brooks, H. F. Schaefer III, A. Yu. Sokolov,
    K. Patkowski, A. E. DePrince III, U. Bozkaya, R. A. King,
    F. A. Evangelista, J. M. Turney, T. D. Crawford, C. D. Sherrill,
    J. Chem. Phys. 152(18) 184108 (2020). https://doi.org/10.1063/5.0006002

                            Additional Code Authors
    E. T. Seidl, C. L. Janssen, E. F. Valeev, M. L. Leininger,
    J. F. Gonthier, R. M. Richard, H. R. McAlexander, M. Saitow, X. Wang,
    P. Verma, and M. H. Lechner

             Previous Authors, Complete List of Code Contributors,
                       and Citations for Specific Modules
    https://github.com/psi4/psi4/blob/master/codemeta.json
    https://github.com/psi4/psi4/graphs/contributors
    http://psicode.org/psi4manual/master/introduction.html#citing-psifour

    -----------------------------------------------------------------------


    Psi4 started on: Wednesday, 01 September 2021 02:16PM

    Process ID: 21263
    Host:       ds1
    PSIDATADIR: /theoryfs2/ds/csargent/miniconda3/envs/cle/share/psi4
    Memory:     500.0 MiB
    Threads:    6
    
  ==> Input File <==

--------------------------------------------------------------------------
# PSI4 file produced by CrystaLattE

# Generated from:               acetic_acid.xyz
# Psithon input for N-mer:      2mer-0+488
# Number of atoms per monomer:  [8, 8]
# Number of replicas:           2
# COM priority:                 1.724755973718e-05
# Minimum COM separations:      20.481 
# Separation priority:          2.097747693180e-05
# Minimum monomer separations:  19.187 
# Cutoff priority:              5.785456993465e-07
# Nuclear repulsion energy:     269.84811175521173

memory 7 GB

molecule Dimer_0_488 {
  O           -5.53102237       2.93940290       1.97762624 
  O           -2.40708886       0.90817734       0.04905909 
  H           -0.50304887       1.37579205       4.63880908 
  H            0.00000000       4.25104285       3.09072238 
  H           -2.38948215       4.01916779       5.40195041 
  H           -3.74771411       0.47147930      -1.21557512 
  C           -1.41859782       2.98500500       3.84405190 
  C           -3.32263781       2.28628814       1.91221413 
--
  O           -5.38513820     -31.84185681      18.33065473 
  O           -8.50907170     -33.87308238      16.40208757 
  H          -10.41311169     -33.40546766      20.99183757 
  H          -10.91616057     -30.53021686      19.44375087 
  H           -8.52667842     -30.76209193      21.75497890 
  H           -7.16844646     -34.30978042      15.13745337 
  C           -9.49756274     -31.79625472      20.19708038 
  C           -7.59352275     -32.49497158      18.26524262 
units = au
no_com
no_reorient
}

set {
  e_convergence 10
  d_convergence 10
  scf_type df
  mp2_type df
  cc_type df
  freeze_core true
}

energy('sapt0/aug-cc-pvdz')

--------------------------------------------------------------------------

  Memory set to   6.519 GiB by Python driver.

Scratch directory: /scratch/csargent/psi4.17562.33784/

Scratch directory: /scratch/csargent/psi4.17562.33784/

  //>>>>>>>>>>>>>>>>>>>>>>>>>>>>>>>>>>>//
  //              Dimer HF             //
  //<<<<<<<<<<<<<<<<<<<<<<<<<<<<<<<<<<<//


*** tstart() called on ds1
*** at Wed Sep  1 14:16:23 2021

   => Loading Basis Set <=

    Name: AUG-CC-PVDZ
    Role: ORBITAL
    Keyword: BASIS
    atoms 1-2, 9-10  entry O          line   254 file /theoryfs2/ds/csargent/miniconda3/envs/cle/share/psi4/basis/aug-cc-pvdz.gbs 
    atoms 3-6, 11-14 entry H          line    40 file /theoryfs2/ds/csargent/miniconda3/envs/cle/share/psi4/basis/aug-cc-pvdz.gbs 
    atoms 7-8, 15-16 entry C          line   182 file /theoryfs2/ds/csargent/miniconda3/envs/cle/share/psi4/basis/aug-cc-pvdz.gbs 


         ---------------------------------------------------------
                                   SCF
               by Justin Turney, Rob Parrish, Andy Simmonett
                          and Daniel G. A. Smith
                              RHF Reference
                        6 Threads,   6675 MiB Core
         ---------------------------------------------------------

  ==> Geometry <==

    Molecular point group: c1
    Full point group: C1

    Geometry (in Bohr), charge = 0, multiplicity = 1:

       Center              X                  Y                   Z               Mass       
    ------------   -----------------  -----------------  -----------------  -----------------
         O           -5.531022370000     2.939402900000     1.977626240000    15.994914619570
         O           -2.407088860000     0.908177340000     0.049059090000    15.994914619570
         H           -0.503048870000     1.375792050000     4.638809080000     1.007825032230
         H            0.000000000000     4.251042850000     3.090722380000     1.007825032230
         H           -2.389482150000     4.019167790000     5.401950410000     1.007825032230
         H           -3.747714110000     0.471479300000    -1.215575120000     1.007825032230
         C           -1.418597820000     2.985005000000     3.844051900000    12.000000000000
         C           -3.322637810000     2.286288140000     1.912214130000    12.000000000000
         O           -5.385138200000   -31.841856810000    18.330654730000    15.994914619570
         O           -8.509071700000   -33.873082380000    16.402087570000    15.994914619570
         H          -10.413111690000   -33.405467660000    20.991837570000     1.007825032230
         H          -10.916160570000   -30.530216860000    19.443750870000     1.007825032230
         H           -8.526678420000   -30.762091930000    21.754978900000     1.007825032230
         H           -7.168446460000   -34.309780420000    15.137453370000     1.007825032230
         C           -9.497562740000   -31.796254720000    20.197080380000    12.000000000000
         C           -7.593522750000   -32.494971580000    18.265242620000    12.000000000000

  Running in c1 symmetry.

  Rotational constants: A =      0.03429  B =      0.00069  C =      0.00068 [cm^-1]
  Rotational constants: A =   1028.11160  B =     20.63347  C =     20.37498 [MHz]
  Nuclear repulsion =  269.848111860984488

  Charge       = 0
  Multiplicity = 1
  Electrons    = 64
  Nalpha       = 32
  Nbeta        = 32

  ==> Algorithm <==

  SCF Algorithm Type is DF.
  DIIS enabled.
  MOM disabled.
  Fractional occupation disabled.
  Guess Type is SAD.
  Energy threshold   = 1.00e-10
  Density threshold  = 1.00e-10
  Integral threshold = 1.00e-12

  ==> Primary Basis <==

  Basis Set: AUG-CC-PVDZ
    Blend: AUG-CC-PVDZ
    Number of shells: 112
    Number of basis functions: 256
    Number of Cartesian functions: 272
    Spherical Harmonics?: true
    Max angular momentum: 2

   => Loading Basis Set <=

    Name: (AUG-CC-PVDZ AUX)
    Role: JKFIT
    Keyword: DF_BASIS_SCF
    atoms 1-2, 9-10  entry O          line   270 file /theoryfs2/ds/csargent/miniconda3/envs/cle/share/psi4/basis/aug-cc-pvdz-jkfit.gbs 
    atoms 3-6, 11-14 entry H          line    70 file /theoryfs2/ds/csargent/miniconda3/envs/cle/share/psi4/basis/aug-cc-pvdz-jkfit.gbs 
    atoms 7-8, 15-16 entry C          line   154 file /theoryfs2/ds/csargent/miniconda3/envs/cle/share/psi4/basis/aug-cc-pvdz-jkfit.gbs 

  ==> Integral Setup <==

  ==> DiskDFJK: Density-Fitted J/K Matrices <==

    J tasked:                  Yes
    K tasked:                  Yes
    wK tasked:                  No
    OpenMP threads:              6
    Integrals threads:           6
    Memory [MiB]:             5006
    Algorithm:                Core
    Integral Cache:           SAVE
    Schwarz Cutoff:          1E-12
    Fitting Condition:       1E-10

   => Auxiliary Basis Set <=

  Basis Set: (AUG-CC-PVDZ AUX)
    Blend: AUG-CC-PVDZ-JKFIT
    Number of shells: 320
    Number of basis functions: 944
    Number of Cartesian functions: 1088
    Spherical Harmonics?: true
    Max angular momentum: 3

  Minimum eigenvalue in the overlap matrix is 1.0277546616E-04.
  Reciprocal condition number of the overlap matrix is 9.6539167242E-06.
    Using symmetric orthogonalization.

  ==> Pre-Iterations <==

  SCF Guess: Superposition of Atomic Densities via on-the-fly atomic UHF (no occupation information).

   -------------------------
    Irrep   Nso     Nmo    
   -------------------------
     A        256     256 
   -------------------------
    Total     256     256
   -------------------------

  ==> Iterations <==

                           Total Energy        Delta E     RMS |[F,P]|

   @DF-RHF iter SAD:  -453.97985886543478   -4.53980e+02   0.00000e+00 
   @DF-RHF iter   1:  -455.36185091986266   -1.38199e+00   3.22735e-03 DIIS
   @DF-RHF iter   2:  -455.60185948841445   -2.40009e-01   1.87333e-03 DIIS
   @DF-RHF iter   3:  -455.68265457737675   -8.07951e-02   3.30257e-04 DIIS
   @DF-RHF iter   4:  -455.68712634619175   -4.47177e-03   1.46109e-04 DIIS
   @DF-RHF iter   5:  -455.68808771870374   -9.61373e-04   3.42341e-05 DIIS
   @DF-RHF iter   6:  -455.68816201880338   -7.43001e-05   1.66560e-05 DIIS
   @DF-RHF iter   7:  -455.68818158347290   -1.95647e-05   5.43265e-06 DIIS
   @DF-RHF iter   8:  -455.68818474534561   -3.16187e-06   1.43629e-06 DIIS
   @DF-RHF iter   9:  -455.68818497857649   -2.33231e-07   3.01190e-07 DIIS
   @DF-RHF iter  10:  -455.68818498621960   -7.64311e-09   7.94302e-08 DIIS
   @DF-RHF iter  11:  -455.68818498662711   -4.07510e-10   2.54793e-08 DIIS
   @DF-RHF iter  12:  -455.68818498667150   -4.43947e-11   6.03321e-09 DIIS
   @DF-RHF iter  13:  -455.68818498667406   -2.55795e-12   1.26857e-09 DIIS
   @DF-RHF iter  14:  -455.68818498667440   -3.41061e-13   4.25016e-10 DIIS
   @DF-RHF iter  15:  -455.68818498667434    5.68434e-14   1.69841e-10 DIIS
   @DF-RHF iter  16:  -455.68818498667440   -5.68434e-14   5.32279e-11 DIIS
  Energy and wave function converged.


  ==> Post-Iterations <==

    Orbital Energies [Eh]
    ---------------------

    Doubly Occupied:                                                      

       1A    -20.629563     2A    -20.629259     3A    -20.552897  
       4A    -20.552595     5A    -11.396196     6A    -11.395894  
       7A    -11.251039     8A    -11.250734     9A     -1.475941  
      10A     -1.475638    11A     -1.357579    12A     -1.357277  
      13A     -1.033067    14A     -1.032763    15A     -0.838010  
      16A     -0.837707    17A     -0.703158    18A     -0.702855  
      19A     -0.688543    20A     -0.688239    21A     -0.657828  
      22A     -0.657524    23A     -0.576620    24A     -0.576316  
      25A     -0.569764    26A     -0.569460    27A     -0.561467  
      28A     -0.561164    29A     -0.475439    30A     -0.475137  
      31A     -0.452525    32A     -0.452223  

    Virtual:                                                              

      33A      0.032157    34A      0.032462    35A      0.045554  
      36A      0.045845    37A      0.055066    38A      0.055388  
      39A      0.064583    40A      0.064882    41A      0.098699  
      42A      0.099000    43A      0.117249    44A      0.117536  
      45A      0.117765    46A      0.118087    47A      0.140461  
      48A      0.140761    49A      0.151935    50A      0.152243  
      51A      0.156299    52A      0.156613    53A      0.164514  
      54A      0.164800    55A      0.171239    56A      0.171553  
      57A      0.196232    58A      0.196534    59A      0.209149  
      60A      0.209448    61A      0.233297    62A      0.233608  
      63A      0.234882    64A      0.235185    65A      0.270779  
      66A      0.271080    67A      0.290182    68A      0.290485  
      69A      0.295742    70A      0.296050    71A      0.319744  
      72A      0.320045    73A      0.322676    74A      0.322982  
      75A      0.347208    76A      0.347509    77A      0.370558  
      78A      0.370860    79A      0.378811    80A      0.379116  
      81A      0.394039    82A      0.394341    83A      0.401353  
      84A      0.401656    85A      0.426633    86A      0.426939  
      87A      0.438149    88A      0.438461    89A      0.441953  
      90A      0.442252    91A      0.475468    92A      0.475769  
      93A      0.492297    94A      0.492605    95A      0.524704  
      96A      0.525010    97A      0.537178    98A      0.537481  
      99A      0.553424   100A      0.553729   101A      0.569675  
     102A      0.569978   103A      0.583728   104A      0.584033  
     105A      0.602020   106A      0.602322   107A      0.618158  
     108A      0.618461   109A      0.640241   110A      0.640546  
     111A      0.649233   112A      0.649534   113A      0.666640  
     114A      0.666950   115A      0.684135   116A      0.684436  
     117A      0.697116   118A      0.697415   119A      0.703508  
     120A      0.703813   121A      0.733218   122A      0.733522  
     123A      0.742672   124A      0.742982   125A      0.798398  
     126A      0.798703   127A      0.853504   128A      0.853806  
     129A      0.876741   130A      0.877044   131A      0.912317  
     132A      0.912621   133A      0.949619   134A      0.949924  
     135A      0.954296   136A      0.954598   137A      0.983063  
     138A      0.983365   139A      1.041466   140A      1.041770  
     141A      1.088754   142A      1.089056   143A      1.101774  
     144A      1.102081   145A      1.118294   146A      1.118599  
     147A      1.157432   148A      1.157735   149A      1.172060  
     150A      1.172366   151A      1.176282   152A      1.176584  
     153A      1.235957   154A      1.236263   155A      1.272094  
     156A      1.272397   157A      1.319134   158A      1.319436  
     159A      1.358090   160A      1.358392   161A      1.390350  
     162A      1.390652   163A      1.412378   164A      1.412683  
     165A      1.462698   166A      1.463000   167A      1.467884  
     168A      1.468186   169A      1.545945   170A      1.546250  
     171A      1.634967   172A      1.635270   173A      1.649836  
     174A      1.650140   175A      1.715023   176A      1.715326  
     177A      1.755725   178A      1.756030   179A      1.772819  
     180A      1.773123   181A      1.847953   182A      1.848256  
     183A      1.865435   184A      1.865739   185A      1.883753  
     186A      1.884059   187A      1.966377   188A      1.966680  
     189A      1.979365   190A      1.979667   191A      2.026225  
     192A      2.026531   193A      2.037562   194A      2.037865  
     195A      2.122767   196A      2.123070   197A      2.171977  
     198A      2.172282   199A      2.193063   200A      2.193367  
     201A      2.244704   202A      2.245008   203A      2.253569  
     204A      2.253873   205A      2.272272   206A      2.272575  
     207A      2.312170   208A      2.312473   209A      2.379536  
     210A      2.379842   211A      2.430251   212A      2.430553  
     213A      2.438594   214A      2.438898   215A      2.536231  
     216A      2.536536   217A      2.623505   218A      2.623809  
     219A      2.652244   220A      2.652549   221A      2.783610  
     222A      2.783913   223A      2.833574   224A      2.833878  
     225A      2.886055   226A      2.886358   227A      2.974218  
     228A      2.974520   229A      3.001533   230A      3.001842  
     231A      3.016240   232A      3.016544   233A      3.178854  
     234A      3.179158   235A      3.346037   236A      3.346340  
     237A      3.666618   238A      3.666922   239A      3.690336  
     240A      3.690639   241A      3.736350   242A      3.736653  
     243A      3.759566   244A      3.759868   245A      3.790230  
     246A      3.790533   247A      3.805155   248A      3.805457  
     249A      3.900325   250A      3.900628   251A      4.050275  
     252A      4.050578   253A      4.142245   254A      4.142547  
     255A      4.309867   256A      4.310170  

    Final Occupation by Irrep:
              A 
    DOCC [    32 ]

  @DF-RHF Final Energy:  -455.68818498667440

   => Energetics <=

    Nuclear Repulsion Energy =            269.8481118609844884
    One-Electron Energy =               -1158.2037503624387682
    Two-Electron Energy =                 432.6674535147798224
    Total Energy =                       -455.6881849866744005

Computation Completed


Properties will be evaluated at   0.000000,   0.000000,   0.000000 [a0]

Properties computed using the SCF density matrix

  Nuclear Dipole Moment: [e a0]
     X:  -349.3171      Y:  -967.9485      Z:   648.6309

  Electronic Dipole Moment: [e a0]
     X:   349.3172      Y:   967.3824      Z:  -648.7969

  Dipole Moment: [e a0]
     X:     0.0000      Y:    -0.5661      Z:    -0.1661     Total:     0.5900

  Dipole Moment: [D]
     X:     0.0000      Y:    -1.4389      Z:    -0.4221     Total:     1.4996


*** tstop() called on ds1 at Wed Sep  1 14:16:26 2021
Module time:
	user time   =      14.22 seconds =       0.24 minutes
	system time =       0.36 seconds =       0.01 minutes
	total time  =          3 seconds =       0.05 minutes
Total time:
	user time   =      14.22 seconds =       0.24 minutes
	system time =       0.36 seconds =       0.01 minutes
	total time  =          3 seconds =       0.05 minutes

  //>>>>>>>>>>>>>>>>>>>>>>>>>>>>>>>>>>>//
  //            Monomer A HF           //
  //<<<<<<<<<<<<<<<<<<<<<<<<<<<<<<<<<<<//


*** tstart() called on ds1
*** at Wed Sep  1 14:16:26 2021

   => Loading Basis Set <=

    Name: AUG-CC-PVDZ
    Role: ORBITAL
    Keyword: BASIS
    atoms 1-2, 9-10  entry O          line   254 file /theoryfs2/ds/csargent/miniconda3/envs/cle/share/psi4/basis/aug-cc-pvdz.gbs 
    atoms 3-6, 11-14 entry H          line    40 file /theoryfs2/ds/csargent/miniconda3/envs/cle/share/psi4/basis/aug-cc-pvdz.gbs 
    atoms 7-8, 15-16 entry C          line   182 file /theoryfs2/ds/csargent/miniconda3/envs/cle/share/psi4/basis/aug-cc-pvdz.gbs 


         ---------------------------------------------------------
                                   SCF
               by Justin Turney, Rob Parrish, Andy Simmonett
                          and Daniel G. A. Smith
                              RHF Reference
                        6 Threads,   6675 MiB Core
         ---------------------------------------------------------

  ==> Geometry <==

    Molecular point group: c1
    Full point group: C1

    Geometry (in Bohr), charge = 0, multiplicity = 1:

       Center              X                  Y                   Z               Mass       
    ------------   -----------------  -----------------  -----------------  -----------------
         O           -5.531022370000     2.939402900000     1.977626240000    15.994914619570
         O           -2.407088860000     0.908177340000     0.049059090000    15.994914619570
         H           -0.503048870000     1.375792050000     4.638809080000     1.007825032230
         H            0.000000000000     4.251042850000     3.090722380000     1.007825032230
         H           -2.389482150000     4.019167790000     5.401950410000     1.007825032230
         H           -3.747714110000     0.471479300000    -1.215575120000     1.007825032230
         C           -1.418597820000     2.985005000000     3.844051900000    12.000000000000
         C           -3.322637810000     2.286288140000     1.912214130000    12.000000000000
      Gh(O)          -5.385138200000   -31.841856810000    18.330654730000    15.994914619570
      Gh(O)          -8.509071700000   -33.873082380000    16.402087570000    15.994914619570
      Gh(H)         -10.413111690000   -33.405467660000    20.991837570000     1.007825032230
      Gh(H)         -10.916160570000   -30.530216860000    19.443750870000     1.007825032230
      Gh(H)          -8.526678420000   -30.762091930000    21.754978900000     1.007825032230
      Gh(H)          -7.168446460000   -34.309780420000    15.137453370000     1.007825032230
      Gh(C)          -9.497562740000   -31.796254720000    20.197080380000    12.000000000000
      Gh(C)          -7.593522750000   -32.494971580000    18.265242620000    12.000000000000

  Running in c1 symmetry.

  Rotational constants: A =      0.03429  B =      0.00069  C =      0.00068 [cm^-1]
  Rotational constants: A =   1028.11160  B =     20.63347  C =     20.37498 [MHz]
  Nuclear repulsion =  121.748430210971620

  Charge       = 0
  Multiplicity = 1
  Electrons    = 32
  Nalpha       = 16
  Nbeta        = 16

  ==> Algorithm <==

  SCF Algorithm Type is DF.
  DIIS enabled.
  MOM disabled.
  Fractional occupation disabled.
  Guess Type is SAD.
  Energy threshold   = 1.00e-10
  Density threshold  = 1.00e-10
  Integral threshold = 1.00e-12

  ==> Primary Basis <==

  Basis Set: AUG-CC-PVDZ
    Blend: AUG-CC-PVDZ
    Number of shells: 112
    Number of basis functions: 256
    Number of Cartesian functions: 272
    Spherical Harmonics?: true
    Max angular momentum: 2

   => Loading Basis Set <=

    Name: (AUG-CC-PVDZ AUX)
    Role: JKFIT
    Keyword: DF_BASIS_SCF
    atoms 1-2, 9-10  entry O          line   270 file /theoryfs2/ds/csargent/miniconda3/envs/cle/share/psi4/basis/aug-cc-pvdz-jkfit.gbs 
    atoms 3-6, 11-14 entry H          line    70 file /theoryfs2/ds/csargent/miniconda3/envs/cle/share/psi4/basis/aug-cc-pvdz-jkfit.gbs 
    atoms 7-8, 15-16 entry C          line   154 file /theoryfs2/ds/csargent/miniconda3/envs/cle/share/psi4/basis/aug-cc-pvdz-jkfit.gbs 

  ==> Integral Setup <==

  ==> DiskDFJK: Density-Fitted J/K Matrices <==

    J tasked:                  Yes
    K tasked:                  Yes
    wK tasked:                  No
    OpenMP threads:              6
    Integrals threads:           6
    Memory [MiB]:             5006
    Algorithm:                Core
    Integral Cache:           LOAD
    Schwarz Cutoff:          1E-12
    Fitting Condition:       1E-10

   => Auxiliary Basis Set <=

  Basis Set: (AUG-CC-PVDZ AUX)
    Blend: AUG-CC-PVDZ-JKFIT
    Number of shells: 320
    Number of basis functions: 944
    Number of Cartesian functions: 1088
    Spherical Harmonics?: true
    Max angular momentum: 3

  Minimum eigenvalue in the overlap matrix is 1.0277546616E-04.
  Reciprocal condition number of the overlap matrix is 9.6539167242E-06.
    Using symmetric orthogonalization.

  ==> Pre-Iterations <==

  SCF Guess: Superposition of Atomic Densities via on-the-fly atomic UHF (no occupation information).

   -------------------------
    Irrep   Nso     Nmo    
   -------------------------
     A        256     256 
   -------------------------
    Total     256     256
   -------------------------

  ==> Iterations <==

                           Total Energy        Delta E     RMS |[F,P]|

   @DF-RHF iter SAD:  -226.98992942879039   -2.26990e+02   0.00000e+00 
   @DF-RHF iter   1:  -227.68091167975399   -6.90982e-01   2.28211e-03 DIIS
   @DF-RHF iter   2:  -227.80091445286703   -1.20003e-01   1.32478e-03 DIIS
   @DF-RHF iter   3:  -227.84131987218672   -4.04054e-02   2.33581e-04 DIIS
   @DF-RHF iter   4:  -227.84355633572380   -2.23646e-03   1.03339e-04 DIIS
   @DF-RHF iter   5:  -227.84403723672727   -4.80901e-04   2.42136e-05 DIIS
   @DF-RHF iter   6:  -227.84407440472495   -3.71680e-05   1.17797e-05 DIIS
   @DF-RHF iter   7:  -227.84408419285086   -9.78813e-06   3.84272e-06 DIIS
   @DF-RHF iter   8:  -227.84408577443759   -1.58159e-06   1.01577e-06 DIIS
   @DF-RHF iter   9:  -227.84408589108818   -1.16651e-07   2.12953e-07 DIIS
   @DF-RHF iter  10:  -227.84408589490852   -3.82033e-09   5.61608e-08 DIIS
   @DF-RHF iter  11:  -227.84408589511216   -2.03642e-10   1.80147e-08 DIIS
   @DF-RHF iter  12:  -227.84408589513419   -2.20268e-11   4.26466e-09 DIIS
   @DF-RHF iter  13:  -227.84408589513589   -1.70530e-12   8.93569e-10 DIIS
   @DF-RHF iter  14:  -227.84408589513566    2.27374e-13   2.86710e-10 DIIS
   @DF-RHF iter  15:  -227.84408589513606   -3.97904e-13   1.08058e-10 DIIS
   @DF-RHF iter  16:  -227.84408589513561    4.54747e-13   2.86096e-11 DIIS
  Energy and wave function converged.


  ==> Post-Iterations <==

    Orbital Energies [Eh]
    ---------------------

    Doubly Occupied:                                                      

       1A    -20.629476     2A    -20.552804     3A    -11.396108  
       4A    -11.250979     5A     -1.475853     6A     -1.357486  
       7A     -1.032999     8A     -0.837930     9A     -0.703065  
      10A     -0.688465    11A     -0.657749    12A     -0.576538  
      13A     -0.569697    14A     -0.561403    15A     -0.475343  
      16A     -0.452434  

    Virtual:                                                              

      17A      0.024704    18A      0.032214    19A      0.045627  
      20A      0.046756    21A      0.055084    22A      0.055510  
      23A      0.056452    24A      0.064645    25A      0.085312  
      26A      0.098769    27A      0.104530    28A      0.112120  
      29A      0.117323    30A      0.117329    31A      0.117857  
      32A      0.140307    33A      0.140545    34A      0.141310  
      35A      0.146797    36A      0.151976    37A      0.156356  
      38A      0.164577    39A      0.171320    40A      0.176295  
      41A      0.196303    42A      0.205545    43A      0.209237  
      44A      0.214521    45A      0.226212    46A      0.233376  
      47A      0.234963    48A      0.243957    49A      0.260164  
      50A      0.264738    51A      0.270849    52A      0.276575  
      53A      0.285366    54A      0.290295    55A      0.295802  
      56A      0.319834    57A      0.322781    58A      0.332233  
      59A      0.336190    60A      0.347275    61A      0.369387  
      62A      0.370652    63A      0.378870    64A      0.394119  
      65A      0.399245    66A      0.401429    67A      0.409734  
      68A      0.426690    69A      0.431084    70A      0.437868  
      71A      0.438218    72A      0.442006    73A      0.460373  
      74A      0.475555    75A      0.490166    76A      0.492357  
      77A      0.497228    78A      0.516453    79A      0.524763  
      80A      0.537262    81A      0.541690    82A      0.543523  
      83A      0.553487    84A      0.559581    85A      0.569740  
      86A      0.583791    87A      0.586760    88A      0.602101  
      89A      0.616250    90A      0.618231    91A      0.636186  
      92A      0.637003    93A      0.640311    94A      0.649301  
      95A      0.666705    96A      0.675071    97A      0.684210  
      98A      0.689893    99A      0.697190   100A      0.700764  
     101A      0.703571   102A      0.728078   103A      0.733289  
     104A      0.742748   105A      0.753578   106A      0.760269  
     107A      0.787101   108A      0.798460   109A      0.815731  
     110A      0.820056   111A      0.848184   112A      0.853581  
     113A      0.876833   114A      0.888142   115A      0.896349  
     116A      0.912403   117A      0.947552   118A      0.949697  
     119A      0.954375   120A      0.958059   121A      0.975842  
     122A      0.983144   123A      1.037887   124A      1.041547  
     125A      1.045124   126A      1.088819   127A      1.101839  
     128A      1.106349   129A      1.118367   130A      1.157520  
     131A      1.162487   132A      1.172141   133A      1.176359  
     134A      1.190807   135A      1.236033   136A      1.260555  
     137A      1.270150   138A      1.272187   139A      1.319230  
     140A      1.329495   141A      1.358181   142A      1.384002  
     143A      1.390440   144A      1.396177   145A      1.412451  
     146A      1.434577   147A      1.458270   148A      1.462795  
     149A      1.467567   150A      1.467976   151A      1.469444  
     152A      1.537466   153A      1.546014   154A      1.569216  
     155A      1.635048   156A      1.649915   157A      1.683638  
     158A      1.715101   159A      1.717395   160A      1.755800  
     161A      1.772884   162A      1.799904   163A      1.848039  
     164A      1.865503   165A      1.882856   166A      1.883811  
     167A      1.936998   168A      1.966454   169A      1.979453  
     170A      2.026298   171A      2.037642   172A      2.070740  
     173A      2.122848   174A      2.172049   175A      2.193137  
     176A      2.244771   177A      2.250873   178A      2.253643  
     179A      2.264937   180A      2.272354   181A      2.273913  
     182A      2.302972   183A      2.312246   184A      2.336588  
     185A      2.339110   186A      2.362120   187A      2.376508  
     188A      2.379604   189A      2.430330   190A      2.438663  
     191A      2.467126   192A      2.505812   193A      2.536303  
     194A      2.585961   195A      2.623585   196A      2.652307  
     197A      2.664667   198A      2.698323   199A      2.754357  
     200A      2.783681   201A      2.786200   202A      2.824219  
     203A      2.833647   204A      2.886121   205A      2.915994  
     206A      2.974291   207A      3.001602   208A      3.016316  
     209A      3.042727   210A      3.178935   211A      3.182456  
     212A      3.278632   213A      3.310731   214A      3.346124  
     215A      3.356917   216A      3.431533   217A      3.486754  
     218A      3.662823   219A      3.666705   220A      3.690423  
     221A      3.736441   222A      3.740124   223A      3.759662  
     224A      3.790324   225A      3.805251   226A      3.900417  
     227A      4.026154   228A      4.050368   229A      4.142340  
     230A      4.153737   231A      4.309953   232A      4.505003  
     233A      4.616960   234A      4.725003   235A      4.925978  
     236A      4.969817   237A      4.978081   238A      5.001732  
     239A      5.016939   240A      5.033820   241A      5.052578  
     242A      5.222088   243A      5.244288   244A      5.615310  
     245A      5.661305   246A      5.791415   247A      5.869121  
     248A      6.052884   249A      6.228936   250A      6.520880  
     251A      6.790368   252A      7.093056   253A     18.346358  
     254A     18.940856   255A     33.525619   256A     33.563679  

    Final Occupation by Irrep:
              A 
    DOCC [    16 ]

  @DF-RHF Final Energy:  -227.84408589513561

   => Energetics <=

    Nuclear Repulsion Energy =            121.7484302109716197
    One-Electron Energy =                -552.7483714382302651
    Two-Electron Energy =                 203.1558553321230534
    Total Energy =                       -227.8440858951356063

Computation Completed


Properties will be evaluated at   0.000000,   0.000000,   0.000000 [a0]

Properties computed using the SCF density matrix

  Nuclear Dipole Moment: [e a0]
     X:   -98.5925      Y:    72.5259      Z:    62.6670

  Electronic Dipole Moment: [e a0]
     X:    99.4206      Y:   -72.8088      Z:   -62.7502

  Dipole Moment: [e a0]
     X:     0.8281      Y:    -0.2829      Z:    -0.0832     Total:     0.8790

  Dipole Moment: [D]
     X:     2.1048      Y:    -0.7191      Z:    -0.2116     Total:     2.2342


*** tstop() called on ds1 at Wed Sep  1 14:16:29 2021
Module time:
	user time   =      10.24 seconds =       0.17 minutes
	system time =       0.21 seconds =       0.00 minutes
	total time  =          3 seconds =       0.05 minutes
Total time:
	user time   =      24.68 seconds =       0.41 minutes
	system time =       0.58 seconds =       0.01 minutes
	total time  =          6 seconds =       0.10 minutes

  //>>>>>>>>>>>>>>>>>>>>>>>>>>>>>>>>>>>//
  //            Monomer B HF           //
  //<<<<<<<<<<<<<<<<<<<<<<<<<<<<<<<<<<<//


*** tstart() called on ds1
*** at Wed Sep  1 14:16:29 2021

   => Loading Basis Set <=

    Name: AUG-CC-PVDZ
    Role: ORBITAL
    Keyword: BASIS
    atoms 1-2, 9-10  entry O          line   254 file /theoryfs2/ds/csargent/miniconda3/envs/cle/share/psi4/basis/aug-cc-pvdz.gbs 
    atoms 3-6, 11-14 entry H          line    40 file /theoryfs2/ds/csargent/miniconda3/envs/cle/share/psi4/basis/aug-cc-pvdz.gbs 
    atoms 7-8, 15-16 entry C          line   182 file /theoryfs2/ds/csargent/miniconda3/envs/cle/share/psi4/basis/aug-cc-pvdz.gbs 


         ---------------------------------------------------------
                                   SCF
               by Justin Turney, Rob Parrish, Andy Simmonett
                          and Daniel G. A. Smith
                              RHF Reference
                        6 Threads,   6675 MiB Core
         ---------------------------------------------------------

  ==> Geometry <==

    Molecular point group: c1
    Full point group: C1

    Geometry (in Bohr), charge = 0, multiplicity = 1:

       Center              X                  Y                   Z               Mass       
    ------------   -----------------  -----------------  -----------------  -----------------
      Gh(O)          -5.531022370000     2.939402900000     1.977626240000    15.994914619570
      Gh(O)          -2.407088860000     0.908177340000     0.049059090000    15.994914619570
      Gh(H)          -0.503048870000     1.375792050000     4.638809080000     1.007825032230
      Gh(H)           0.000000000000     4.251042850000     3.090722380000     1.007825032230
      Gh(H)          -2.389482150000     4.019167790000     5.401950410000     1.007825032230
      Gh(H)          -3.747714110000     0.471479300000    -1.215575120000     1.007825032230
      Gh(C)          -1.418597820000     2.985005000000     3.844051900000    12.000000000000
      Gh(C)          -3.322637810000     2.286288140000     1.912214130000    12.000000000000
         O           -5.385138200000   -31.841856810000    18.330654730000    15.994914619570
         O           -8.509071700000   -33.873082380000    16.402087570000    15.994914619570
         H          -10.413111690000   -33.405467660000    20.991837570000     1.007825032230
         H          -10.916160570000   -30.530216860000    19.443750870000     1.007825032230
         H           -8.526678420000   -30.762091930000    21.754978900000     1.007825032230
         H           -7.168446460000   -34.309780420000    15.137453370000     1.007825032230
         C           -9.497562740000   -31.796254720000    20.197080380000    12.000000000000
         C           -7.593522750000   -32.494971580000    18.265242620000    12.000000000000

  Running in c1 symmetry.

  Rotational constants: A =      0.03429  B =      0.00069  C =      0.00068 [cm^-1]
  Rotational constants: A =   1028.11160  B =     20.63347  C =     20.37498 [MHz]
  Nuclear repulsion =  121.748430278086886

  Charge       = 0
  Multiplicity = 1
  Electrons    = 32
  Nalpha       = 16
  Nbeta        = 16

  ==> Algorithm <==

  SCF Algorithm Type is DF.
  DIIS enabled.
  MOM disabled.
  Fractional occupation disabled.
  Guess Type is SAD.
  Energy threshold   = 1.00e-10
  Density threshold  = 1.00e-10
  Integral threshold = 1.00e-12

  ==> Primary Basis <==

  Basis Set: AUG-CC-PVDZ
    Blend: AUG-CC-PVDZ
    Number of shells: 112
    Number of basis functions: 256
    Number of Cartesian functions: 272
    Spherical Harmonics?: true
    Max angular momentum: 2

   => Loading Basis Set <=

    Name: (AUG-CC-PVDZ AUX)
    Role: JKFIT
    Keyword: DF_BASIS_SCF
    atoms 1-2, 9-10  entry O          line   270 file /theoryfs2/ds/csargent/miniconda3/envs/cle/share/psi4/basis/aug-cc-pvdz-jkfit.gbs 
    atoms 3-6, 11-14 entry H          line    70 file /theoryfs2/ds/csargent/miniconda3/envs/cle/share/psi4/basis/aug-cc-pvdz-jkfit.gbs 
    atoms 7-8, 15-16 entry C          line   154 file /theoryfs2/ds/csargent/miniconda3/envs/cle/share/psi4/basis/aug-cc-pvdz-jkfit.gbs 

  ==> Integral Setup <==

  ==> DiskDFJK: Density-Fitted J/K Matrices <==

    J tasked:                  Yes
    K tasked:                  Yes
    wK tasked:                  No
    OpenMP threads:              6
    Integrals threads:           6
    Memory [MiB]:             5006
    Algorithm:                Core
    Integral Cache:           LOAD
    Schwarz Cutoff:          1E-12
    Fitting Condition:       1E-10

   => Auxiliary Basis Set <=

  Basis Set: (AUG-CC-PVDZ AUX)
    Blend: AUG-CC-PVDZ-JKFIT
    Number of shells: 320
    Number of basis functions: 944
    Number of Cartesian functions: 1088
    Spherical Harmonics?: true
    Max angular momentum: 3

  Minimum eigenvalue in the overlap matrix is 1.0277546616E-04.
  Reciprocal condition number of the overlap matrix is 9.6539167242E-06.
    Using symmetric orthogonalization.

  ==> Pre-Iterations <==

  SCF Guess: Superposition of Atomic Densities via on-the-fly atomic UHF (no occupation information).

   -------------------------
    Irrep   Nso     Nmo    
   -------------------------
     A        256     256 
   -------------------------
    Total     256     256
   -------------------------

  ==> Iterations <==

                           Total Energy        Delta E     RMS |[F,P]|

   @DF-RHF iter SAD:  -226.98992943582834   -2.26990e+02   0.00000e+00 
   @DF-RHF iter   1:  -227.68091168131627   -6.90982e-01   2.28211e-03 DIIS
   @DF-RHF iter   2:  -227.80091445446507   -1.20003e-01   1.32478e-03 DIIS
   @DF-RHF iter   3:  -227.84131987327521   -4.04054e-02   2.33581e-04 DIIS
   @DF-RHF iter   4:  -227.84355633678578   -2.23646e-03   1.03339e-04 DIIS
   @DF-RHF iter   5:  -227.84403723778331   -4.80901e-04   2.42136e-05 DIIS
   @DF-RHF iter   6:  -227.84407440578033   -3.71680e-05   1.17797e-05 DIIS
   @DF-RHF iter   7:  -227.84408419390621   -9.78813e-06   3.84272e-06 DIIS
   @DF-RHF iter   8:  -227.84408577549311   -1.58159e-06   1.01577e-06 DIIS
   @DF-RHF iter   9:  -227.84408589214360   -1.16650e-07   2.12953e-07 DIIS
   @DF-RHF iter  10:  -227.84408589596379   -3.82019e-09   5.61608e-08 DIIS
   @DF-RHF iter  11:  -227.84408589616737   -2.03585e-10   1.80147e-08 DIIS
   @DF-RHF iter  12:  -227.84408589618965   -2.22826e-11   4.26466e-09 DIIS
   @DF-RHF iter  13:  -227.84408589619107   -1.42109e-12   8.93569e-10 DIIS
   @DF-RHF iter  14:  -227.84408589619096    1.13687e-13   2.86710e-10 DIIS
   @DF-RHF iter  15:  -227.84408589619130   -3.41061e-13   1.08058e-10 DIIS
   @DF-RHF iter  16:  -227.84408589619076    5.40012e-13   2.86096e-11 DIIS
  Energy and wave function converged.


  ==> Post-Iterations <==

    Orbital Energies [Eh]
    ---------------------

    Doubly Occupied:                                                      

       1A    -20.629476     2A    -20.552804     3A    -11.396108  
       4A    -11.250979     5A     -1.475853     6A     -1.357486  
       7A     -1.032999     8A     -0.837930     9A     -0.703065  
      10A     -0.688465    11A     -0.657749    12A     -0.576538  
      13A     -0.569697    14A     -0.561403    15A     -0.475343  
      16A     -0.452434  

    Virtual:                                                              

      17A      0.025008    18A      0.032214    19A      0.045627  
      20A      0.047044    21A      0.055084    22A      0.055847  
      23A      0.056739    24A      0.064645    25A      0.085603  
      26A      0.098769    27A      0.104836    28A      0.112429  
      29A      0.117323    30A      0.117635    31A      0.117857  
      32A      0.140545    33A      0.140600    34A      0.141613  
      35A      0.147114    36A      0.151976    37A      0.156356  
      38A      0.164577    39A      0.171320    40A      0.176593  
      41A      0.196303    42A      0.205858    43A      0.209237  
      44A      0.214822    45A      0.226512    46A      0.233376  
      47A      0.234963    48A      0.244258    49A      0.260477  
      50A      0.265034    51A      0.270849    52A      0.276870  
      53A      0.285672    54A      0.290295    55A      0.295802  
      56A      0.319834    57A      0.322781    58A      0.332529  
      59A      0.336507    60A      0.347275    61A      0.369689  
      62A      0.370652    63A      0.378870    64A      0.394119  
      65A      0.399551    66A      0.401429    67A      0.410041  
      68A      0.426690    69A      0.431391    70A      0.438170  
      71A      0.438218    72A      0.442006    73A      0.460674  
      74A      0.475555    75A      0.490470    76A      0.492357  
      77A      0.497532    78A      0.516754    79A      0.524763  
      80A      0.537262    81A      0.541992    82A      0.543829  
      83A      0.553487    84A      0.559882    85A      0.569740  
      86A      0.583791    87A      0.587068    88A      0.602101  
      89A      0.616553    90A      0.618231    91A      0.636492  
      92A      0.637306    93A      0.640311    94A      0.649301  
      95A      0.666705    96A      0.675375    97A      0.684210  
      98A      0.690195    99A      0.697190   100A      0.701069  
     101A      0.703571   102A      0.728382   103A      0.733289  
     104A      0.742748   105A      0.753880   106A      0.760573  
     107A      0.787409   108A      0.798460   109A      0.816037  
     110A      0.820364   111A      0.848490   112A      0.853581  
     113A      0.876833   114A      0.888448   115A      0.896652  
     116A      0.912403   117A      0.947854   118A      0.949697  
     119A      0.954375   120A      0.958364   121A      0.976146  
     122A      0.983144   123A      1.038189   124A      1.041547  
     125A      1.045429   126A      1.088819   127A      1.101839  
     128A      1.106652   129A      1.118367   130A      1.157520  
     131A      1.162791   132A      1.172141   133A      1.176359  
     134A      1.191110   135A      1.236033   136A      1.260857  
     137A      1.270451   138A      1.272187   139A      1.319230  
     140A      1.329798   141A      1.358181   142A      1.384303  
     143A      1.390440   144A      1.396480   145A      1.412451  
     146A      1.434879   147A      1.458573   148A      1.462795  
     149A      1.467870   150A      1.467976   151A      1.469747  
     152A      1.537769   153A      1.546014   154A      1.569519  
     155A      1.635048   156A      1.649915   157A      1.683940  
     158A      1.715101   159A      1.717697   160A      1.755800  
     161A      1.772884   162A      1.800206   163A      1.848039  
     164A      1.865503   165A      1.883162   166A      1.883811  
     167A      1.937306   168A      1.966454   169A      1.979453  
     170A      2.026298   171A      2.037642   172A      2.071044  
     173A      2.122848   174A      2.172049   175A      2.193137  
     176A      2.244771   177A      2.251177   178A      2.253643  
     179A      2.265247   180A      2.272354   181A      2.274212  
     182A      2.303277   183A      2.312246   184A      2.336886  
     185A      2.339424   186A      2.362426   187A      2.376813  
     188A      2.379604   189A      2.430330   190A      2.438663  
     191A      2.467428   192A      2.506114   193A      2.536303  
     194A      2.586263   195A      2.623585   196A      2.652307  
     197A      2.664972   198A      2.698629   199A      2.754663  
     200A      2.783681   201A      2.786509   202A      2.824521  
     203A      2.833647   204A      2.886121   205A      2.916298  
     206A      2.974291   207A      3.001602   208A      3.016316  
     209A      3.043031   210A      3.178935   211A      3.182761  
     212A      3.278939   213A      3.311034   214A      3.346124  
     215A      3.357222   216A      3.431839   217A      3.487059  
     218A      3.663126   219A      3.666705   220A      3.690423  
     221A      3.736441   222A      3.740428   223A      3.759662  
     224A      3.790324   225A      3.805251   226A      3.900417  
     227A      4.026456   228A      4.050368   229A      4.142340  
     230A      4.154039   231A      4.309953   232A      4.505304  
     233A      4.617263   234A      4.725307   235A      4.926279  
     236A      4.970118   237A      4.978385   238A      5.002033  
     239A      5.017242   240A      5.034124   241A      5.052881  
     242A      5.222392   243A      5.244596   244A      5.615615  
     245A      5.661609   246A      5.791718   247A      5.869422  
     248A      6.053186   249A      6.229236   250A      6.521184  
     251A      6.790671   252A      7.093358   253A     18.346663  
     254A     18.941161   255A     33.525919   256A     33.563984  

    Final Occupation by Irrep:
              A 
    DOCC [    16 ]

  @DF-RHF Final Energy:  -227.84408589619076

   => Energetics <=

    Nuclear Repulsion Energy =            121.7484302780868859
    One-Electron Energy =                -552.7483715649808573
    Two-Electron Energy =                 203.1558553907032376
    Total Energy =                       -227.8440858961907622

Computation Completed


Properties will be evaluated at   0.000000,   0.000000,   0.000000 [a0]

Properties computed using the SCF density matrix

  Nuclear Dipole Moment: [e a0]
     X:  -250.7246      Y: -1040.4744      Z:   585.9639

  Electronic Dipole Moment: [e a0]
     X:   249.8965      Y:  1040.1915      Z:  -586.0471

  Dipole Moment: [e a0]
     X:    -0.8281      Y:    -0.2829      Z:    -0.0832     Total:     0.8790

  Dipole Moment: [D]
     X:    -2.1048      Y:    -0.7191      Z:    -0.2116     Total:     2.2342


*** tstop() called on ds1 at Wed Sep  1 14:16:31 2021
Module time:
	user time   =      10.40 seconds =       0.17 minutes
	system time =       0.15 seconds =       0.00 minutes
	total time  =          2 seconds =       0.03 minutes
Total time:
	user time   =      35.29 seconds =       0.59 minutes
	system time =       0.73 seconds =       0.01 minutes
	total time  =          8 seconds =       0.13 minutes
  Constructing Basis Sets for SAPT...

   => Loading Basis Set <=

    Name: (AUG-CC-PVDZ AUX)
    Role: RIFIT
    Keyword: DF_BASIS_SAPT
    atoms 1-2, 9-10  entry O          line   204 file /theoryfs2/ds/csargent/miniconda3/envs/cle/share/psi4/basis/aug-cc-pvdz-ri.gbs 
    atoms 3-6, 11-14 entry H          line    30 file /theoryfs2/ds/csargent/miniconda3/envs/cle/share/psi4/basis/aug-cc-pvdz-ri.gbs 
    atoms 7-8, 15-16 entry C          line   112 file /theoryfs2/ds/csargent/miniconda3/envs/cle/share/psi4/basis/aug-cc-pvdz-ri.gbs 


  //>>>>>>>>>>>>>>>>>>>>>>>>>>>>>>>>>>>//
  //               SAPT0               //
  //<<<<<<<<<<<<<<<<<<<<<<<<<<<<<<<<<<<//


*** tstart() called on ds1
*** at Wed Sep  1 14:16:31 2021

        SAPT0  
    Ed Hohenstein
     6 June 2009

      Orbital Information
  --------------------------
    NSO        =       256
    NMO        =       256
    NRI        =       760
    NOCC A     =        16
    NOCC B     =        16
    FOCC A     =         4
    FOCC B     =         4
    NVIR A     =       240
    NVIR B     =       240

    Elst10,r            =    -0.000013169353 [Eh]
    Exch10              =    -0.000000000000 [Eh]
    Exch10 (S^2)        =    -0.000000000000 [Eh]

    Iter     Energy [mEh]          dE [mEh]         Residual      Time [s]
       1      -0.00000596       0.000005960       0.024180887             0
       2      -0.00000598       0.000000024       0.008544044             0
       3      -0.00000666       0.000000678       0.003011723             0
       4      -0.00000677       0.000000104       0.000900219             0
       5      -0.00000672      -0.000000041       0.000303817             0
       6      -0.00000672       0.000000000       0.000102266             0
       7      -0.00000673       0.000000002       0.000031696             0
       8      -0.00000673       0.000000000       0.000008491             0
       9      -0.00000673      -0.000000000       0.000002916             0
      10      -0.00000673      -0.000000000       0.000001026             0
      11      -0.00000673       0.000000000       0.000000363             1

    CHF Iterations converged


    Iter     Energy [mEh]          dE [mEh]         Residual      Time [s]
       1      -0.00000336       0.000003364       0.019369368             0
       2      -0.00000341       0.000000050       0.006721353             0
       3      -0.00000390       0.000000488       0.001988609             0
       4      -0.00000392       0.000000020       0.000812810             0
       5      -0.00000390      -0.000000020       0.000249240             0
       6      -0.00000390       0.000000000       0.000076469             0
       7      -0.00000390       0.000000002       0.000021558             0
       8      -0.00000390       0.000000000       0.000006750             0
       9      -0.00000390      -0.000000000       0.000001882             0
      10      -0.00000390      -0.000000000       0.000000646             0

    CHF Iterations converged

    Ind20,r (A<-B)      =    -0.000000006727 [Eh]
    Ind20,r (B<-A)      =    -0.000000003904 [Eh]
    Ind20,r             =    -0.000000010631 [Eh]
    Exch-Ind20,r (A<-B) =     0.000000000000 [Eh]
    Exch-Ind20,r (B<-A) =     0.000000000000 [Eh]
    Exch-Ind20,r        =     0.000000000000 [Eh]
    Disp20              =    -0.000000147329 [Eh]
    Disp20 (SS)         =    -0.000000073665 [Eh]
    Disp20 (OS)         =    -0.000000073665 [Eh]
    Exch-Disp20         =     0.000000000000 [Eh]
    Exch-Disp20 (SS)    =     0.000000000000 [Eh]
    Exch-Disp20 (OS)    =     0.000000000000 [Eh]

    SAPT Results 
  --------------------------------------------------------------------------------------------------------
    Electrostatics                 -0.01316935 [mEh]      -0.00826389 [kcal/mol]      -0.03457613 [kJ/mol]
      Elst10,r                     -0.01316935 [mEh]      -0.00826389 [kcal/mol]      -0.03457613 [kJ/mol]

    Exchange                       -0.00000000 [mEh]      -0.00000000 [kcal/mol]      -0.00000000 [kJ/mol]
      Exch10                       -0.00000000 [mEh]      -0.00000000 [kcal/mol]      -0.00000000 [kJ/mol]
      Exch10(S^2)                  -0.00000000 [mEh]      -0.00000000 [kcal/mol]      -0.00000000 [kJ/mol]

    Induction                      -0.00002600 [mEh]      -0.00001631 [kcal/mol]      -0.00006825 [kJ/mol]
      Ind20,r                      -0.00001063 [mEh]      -0.00000667 [kcal/mol]      -0.00002791 [kJ/mol]
      Exch-Ind20,r                  0.00000000 [mEh]       0.00000000 [kcal/mol]       0.00000000 [kJ/mol]
      delta HF,r (2)               -0.00001536 [mEh]      -0.00000964 [kcal/mol]      -0.00004034 [kJ/mol]

    Dispersion                     -0.00014733 [mEh]      -0.00009245 [kcal/mol]      -0.00038681 [kJ/mol]
      Disp20                       -0.00014733 [mEh]      -0.00009245 [kcal/mol]      -0.00038681 [kJ/mol]
      Exch-Disp20                   0.00000000 [mEh]       0.00000000 [kcal/mol]       0.00000000 [kJ/mol]
      Disp20 (SS)                  -0.00007366 [mEh]      -0.00004623 [kcal/mol]      -0.00019341 [kJ/mol]
      Disp20 (OS)                  -0.00007366 [mEh]      -0.00004623 [kcal/mol]      -0.00019341 [kJ/mol]
      Exch-Disp20 (SS)              0.00000000 [mEh]       0.00000000 [kcal/mol]       0.00000000 [kJ/mol]
      Exch-Disp20 (OS)              0.00000000 [mEh]       0.00000000 [kcal/mol]       0.00000000 [kJ/mol]

  Total HF                         -0.01319535 [mEh]      -0.00828021 [kcal/mol]      -0.03464438 [kJ/mol]
  Total SAPT0                      -0.01334268 [mEh]      -0.00837266 [kcal/mol]      -0.03503119 [kJ/mol]

  Special recipe for scaled SAPT0 (see Manual):
    Electrostatics sSAPT0          -0.01316935 [mEh]      -0.00826389 [kcal/mol]      -0.03457613 [kJ/mol]
    Exchange sSAPT0                -0.00000000 [mEh]      -0.00000000 [kcal/mol]      -0.00000000 [kJ/mol]
    Induction sSAPT0               -0.00002600 [mEh]      -0.00001631 [kcal/mol]      -0.00006825 [kJ/mol]
    Dispersion sSAPT0              -0.00014733 [mEh]      -0.00009245 [kcal/mol]      -0.00038681 [kJ/mol]
  Total sSAPT0                     -0.01334268 [mEh]      -0.00837266 [kcal/mol]      -0.03503119 [kJ/mol]
  --------------------------------------------------------------------------------------------------------

*** tstop() called on ds1 at Wed Sep  1 14:16:37 2021
Module time:
	user time   =      27.66 seconds =       0.46 minutes
	system time =       2.34 seconds =       0.04 minutes
	total time  =          6 seconds =       0.10 minutes
Total time:
	user time   =      63.72 seconds =       1.06 minutes
	system time =       3.10 seconds =       0.05 minutes
	total time  =         14 seconds =       0.23 minutes


Warning! sapt0 does not have an associated derived wavefunction.The returned wavefunction is the dimer SCF wavefunction.


    Psi4 stopped on: Wednesday, 01 September 2021 02:16PM
    Psi4 wall time for execution: 0:00:13.84

*** Psi4 exiting successfully. Buy a developer a beer!
