
    -----------------------------------------------------------------------
          Psi4: An Open-Source Ab Initio Electronic Structure Package
                               Psi4 1.4rc3 

                         Git: Rev {HEAD} 080dba6 


    D. G. A. Smith, L. A. Burns, A. C. Simmonett, R. M. Parrish,
    M. C. Schieber, R. Galvelis, P. Kraus, H. Kruse, R. Di Remigio,
    A. Alenaizan, A. M. James, S. Lehtola, J. P. Misiewicz, M. Scheurer,
    R. A. Shaw, J. B. Schriber, Y. Xie, Z. L. Glick, D. A. Sirianni,
    J. S. O'Brien, J. M. Waldrop, A. Kumar, E. G. Hohenstein,
    B. P. Pritchard, B. R. Brooks, H. F. Schaefer III, A. Yu. Sokolov,
    K. Patkowski, A. E. DePrince III, U. Bozkaya, R. A. King,
    F. A. Evangelista, J. M. Turney, T. D. Crawford, C. D. Sherrill,
    J. Chem. Phys. 152(18) 184108 (2020). https://doi.org/10.1063/5.0006002

                            Additional Code Authors
    E. T. Seidl, C. L. Janssen, E. F. Valeev, M. L. Leininger,
    J. F. Gonthier, R. M. Richard, H. R. McAlexander, M. Saitow, X. Wang,
    P. Verma, and M. H. Lechner

             Previous Authors, Complete List of Code Contributors,
                       and Citations for Specific Modules
    https://github.com/psi4/psi4/blob/master/codemeta.json
    https://github.com/psi4/psi4/graphs/contributors
    http://psicode.org/psi4manual/master/introduction.html#citing-psifour

    -----------------------------------------------------------------------


    Psi4 started on: Wednesday, 01 September 2021 01:45PM

    Process ID: 19617
    Host:       ds1
    PSIDATADIR: /theoryfs2/ds/csargent/miniconda3/envs/cle/share/psi4
    Memory:     500.0 MiB
    Threads:    6
    
  ==> Input File <==

--------------------------------------------------------------------------
# PSI4 file produced by CrystaLattE

# Generated from:               acetic_acid.xyz
# Psithon input for N-mer:      2mer-0+245
# Number of atoms per monomer:  [8, 8]
# Number of replicas:           2
# COM priority:                 2.196016123964e-05
# Minimum COM separations:      18.897 
# Separation priority:          3.641513407614e-05
# Minimum monomer separations:  15.965 
# Cutoff priority:              1.207005412971e-06
# Nuclear repulsion energy:     272.3314244187272

memory 7 GB

molecule Dimer_0_245 {
  O           -5.53102237       2.93940290       1.97762624 
  O           -2.40708886       0.90817734       0.04905909 
  H           -0.50304887       1.37579205       4.63880908 
  H            0.00000000       4.25104285       3.09072238 
  H           -2.38948215       4.01916779       5.40195041 
  H           -3.74771411       0.47147930      -1.21557512 
  C           -1.41859782       2.98500500       3.84405190 
  C           -3.32263781       2.28628814       1.91221413 
--
  O           32.34352736     -10.51398835      -3.47338325 
  O           29.21959385      -8.48276279      -5.40195041 
  H           27.31555386      -8.95037750      -0.81220041 
  H           26.81250499     -11.82562830      -2.36028711 
  H           29.20198714     -11.59375324      -0.04905909 
  H           30.56021910      -8.04606475      -6.66658461 
  C           28.23110281     -10.55959045      -1.60695760 
  C           30.13514280      -9.86087359      -3.53879536 
units = au
no_com
no_reorient
}

set {
  e_convergence 10
  d_convergence 10
  scf_type df
  mp2_type df
  cc_type df
  freeze_core true
}

energy('sapt0/aug-cc-pvdz')

--------------------------------------------------------------------------

  Memory set to   6.519 GiB by Python driver.

Scratch directory: /scratch/csargent/psi4.17562.33784/

Scratch directory: /scratch/csargent/psi4.17562.33784/

  //>>>>>>>>>>>>>>>>>>>>>>>>>>>>>>>>>>>//
  //              Dimer HF             //
  //<<<<<<<<<<<<<<<<<<<<<<<<<<<<<<<<<<<//


*** tstart() called on ds1
*** at Wed Sep  1 13:45:56 2021

   => Loading Basis Set <=

    Name: AUG-CC-PVDZ
    Role: ORBITAL
    Keyword: BASIS
    atoms 1-2, 9-10  entry O          line   254 file /theoryfs2/ds/csargent/miniconda3/envs/cle/share/psi4/basis/aug-cc-pvdz.gbs 
    atoms 3-6, 11-14 entry H          line    40 file /theoryfs2/ds/csargent/miniconda3/envs/cle/share/psi4/basis/aug-cc-pvdz.gbs 
    atoms 7-8, 15-16 entry C          line   182 file /theoryfs2/ds/csargent/miniconda3/envs/cle/share/psi4/basis/aug-cc-pvdz.gbs 


         ---------------------------------------------------------
                                   SCF
               by Justin Turney, Rob Parrish, Andy Simmonett
                          and Daniel G. A. Smith
                              RHF Reference
                        6 Threads,   6675 MiB Core
         ---------------------------------------------------------

  ==> Geometry <==

    Molecular point group: c1
    Full point group: C1

    Geometry (in Bohr), charge = 0, multiplicity = 1:

       Center              X                  Y                   Z               Mass       
    ------------   -----------------  -----------------  -----------------  -----------------
         O           -5.531022370000     2.939402900000     1.977626240000    15.994914619570
         O           -2.407088860000     0.908177340000     0.049059090000    15.994914619570
         H           -0.503048870000     1.375792050000     4.638809080000     1.007825032230
         H            0.000000000000     4.251042850000     3.090722380000     1.007825032230
         H           -2.389482150000     4.019167790000     5.401950410000     1.007825032230
         H           -3.747714110000     0.471479300000    -1.215575120000     1.007825032230
         C           -1.418597820000     2.985005000000     3.844051900000    12.000000000000
         C           -3.322637810000     2.286288140000     1.912214130000    12.000000000000
         O           32.343527360000   -10.513988350000    -3.473383250000    15.994914619570
         O           29.219593850000    -8.482762790000    -5.401950410000    15.994914619570
         H           27.315553860000    -8.950377500000    -0.812200410000     1.007825032230
         H           26.812504990000   -11.825628300000    -2.360287110000     1.007825032230
         H           29.201987140000   -11.593753240000    -0.049059090000     1.007825032230
         H           30.560219100000    -8.046064750000    -6.666584610000     1.007825032230
         C           28.231102810000   -10.559590450000    -1.606957600000    12.000000000000
         C           30.135142800000    -9.860873590000    -3.538795360000    12.000000000000

  Running in c1 symmetry.

  Rotational constants: A =      0.10538  B =      0.00097  C =      0.00097 [cm^-1]
  Rotational constants: A =   3159.28243  B =     29.15749  C =     29.02045 [MHz]
  Nuclear repulsion =  272.331424443844696

  Charge       = 0
  Multiplicity = 1
  Electrons    = 64
  Nalpha       = 32
  Nbeta        = 32

  ==> Algorithm <==

  SCF Algorithm Type is DF.
  DIIS enabled.
  MOM disabled.
  Fractional occupation disabled.
  Guess Type is SAD.
  Energy threshold   = 1.00e-10
  Density threshold  = 1.00e-10
  Integral threshold = 1.00e-12

  ==> Primary Basis <==

  Basis Set: AUG-CC-PVDZ
    Blend: AUG-CC-PVDZ
    Number of shells: 112
    Number of basis functions: 256
    Number of Cartesian functions: 272
    Spherical Harmonics?: true
    Max angular momentum: 2

   => Loading Basis Set <=

    Name: (AUG-CC-PVDZ AUX)
    Role: JKFIT
    Keyword: DF_BASIS_SCF
    atoms 1-2, 9-10  entry O          line   270 file /theoryfs2/ds/csargent/miniconda3/envs/cle/share/psi4/basis/aug-cc-pvdz-jkfit.gbs 
    atoms 3-6, 11-14 entry H          line    70 file /theoryfs2/ds/csargent/miniconda3/envs/cle/share/psi4/basis/aug-cc-pvdz-jkfit.gbs 
    atoms 7-8, 15-16 entry C          line   154 file /theoryfs2/ds/csargent/miniconda3/envs/cle/share/psi4/basis/aug-cc-pvdz-jkfit.gbs 

  ==> Integral Setup <==

  ==> DiskDFJK: Density-Fitted J/K Matrices <==

    J tasked:                  Yes
    K tasked:                  Yes
    wK tasked:                  No
    OpenMP threads:              6
    Integrals threads:           6
    Memory [MiB]:             5006
    Algorithm:                Core
    Integral Cache:           SAVE
    Schwarz Cutoff:          1E-12
    Fitting Condition:       1E-10

   => Auxiliary Basis Set <=

  Basis Set: (AUG-CC-PVDZ AUX)
    Blend: AUG-CC-PVDZ-JKFIT
    Number of shells: 320
    Number of basis functions: 944
    Number of Cartesian functions: 1088
    Spherical Harmonics?: true
    Max angular momentum: 3

  Minimum eigenvalue in the overlap matrix is 1.0277435870E-04.
  Reciprocal condition number of the overlap matrix is 9.6538125233E-06.
    Using symmetric orthogonalization.

  ==> Pre-Iterations <==

  SCF Guess: Superposition of Atomic Densities via on-the-fly atomic UHF (no occupation information).

   -------------------------
    Irrep   Nso     Nmo    
   -------------------------
     A        256     256 
   -------------------------
    Total     256     256
   -------------------------

  ==> Iterations <==

                           Total Energy        Delta E     RMS |[F,P]|

   @DF-RHF iter SAD:  -453.97985885878416   -4.53980e+02   0.00000e+00 
   @DF-RHF iter   1:  -455.36178053767782   -1.38192e+00   3.22746e-03 DIIS
   @DF-RHF iter   2:  -455.60178041596544   -2.40000e-01   1.87385e-03 DIIS
   @DF-RHF iter   3:  -455.68261878850740   -8.08384e-02   3.30490e-04 DIIS
   @DF-RHF iter   4:  -455.68709386975308   -4.47508e-03   1.46217e-04 DIIS
   @DF-RHF iter   5:  -455.68805651294986   -9.62643e-04   3.42621e-05 DIIS
   @DF-RHF iter   6:  -455.68813090936021   -7.43964e-05   1.66638e-05 DIIS
   @DF-RHF iter   7:  -455.68815050475132   -1.95954e-05   5.43732e-06 DIIS
   @DF-RHF iter   8:  -455.68815366991134   -3.16516e-06   1.43681e-06 DIIS
   @DF-RHF iter   9:  -455.68815390331730   -2.33406e-07   3.01080e-07 DIIS
   @DF-RHF iter  10:  -455.68815391095222   -7.63492e-09   7.94147e-08 DIIS
   @DF-RHF iter  11:  -455.68815391135871   -4.06487e-10   2.54731e-08 DIIS
   @DF-RHF iter  12:  -455.68815391140265   -4.39400e-11   6.03089e-09 DIIS
   @DF-RHF iter  13:  -455.68815391140595   -3.29692e-12   1.27554e-09 DIIS
   @DF-RHF iter  14:  -455.68815391140640   -4.54747e-13   4.51850e-10 DIIS
   @DF-RHF iter  15:  -455.68815391140623    1.70530e-13   1.85978e-10 DIIS
   @DF-RHF iter  16:  -455.68815391140606    1.70530e-13   5.68894e-11 DIIS
  Energy and wave function converged.


  ==> Post-Iterations <==

    Orbital Energies [Eh]
    ---------------------

    Doubly Occupied:                                                      

       1A    -20.630051     2A    -20.630017     3A    -20.553351  
       4A    -20.553332     5A    -11.396662     6A    -11.396644  
       7A    -11.251559     8A    -11.251556     9A     -1.476419  
      10A     -1.476390    11A     -1.358038    12A     -1.358015  
      13A     -1.033575    14A     -1.033566    15A     -0.838506  
      16A     -0.838480    17A     -0.703620    18A     -0.703596  
      19A     -0.689036    20A     -0.689018    21A     -0.658321  
      22A     -0.658300    23A     -0.577106    24A     -0.577086  
      25A     -0.570280    26A     -0.570266    27A     -0.561977  
      28A     -0.561972    29A     -0.475890    30A     -0.475868  
      31A     -0.452982    32A     -0.452964  

    Virtual:                                                              

      33A      0.031595    34A      0.031624    35A      0.045051  
      36A      0.045080    37A      0.054439    38A      0.054441  
      39A      0.064091    40A      0.064118    41A      0.098209  
      42A      0.098213    43A      0.116759    44A      0.116779  
      45A      0.117295    46A      0.117308    47A      0.139980  
      48A      0.140002    49A      0.151327    50A      0.151358  
      51A      0.155785    52A      0.155796    53A      0.164019  
      54A      0.164031    55A      0.170757    56A      0.170768  
      57A      0.195726    58A      0.195739    59A      0.208656  
      60A      0.208698    61A      0.232787    62A      0.232818  
      63A      0.234393    64A      0.234416    65A      0.270288  
      66A      0.270292    67A      0.289769    68A      0.289793  
      69A      0.295205    70A      0.295220    71A      0.319271  
      72A      0.319298    73A      0.322258    74A      0.322274  
      75A      0.346700    76A      0.346710    77A      0.370108  
      78A      0.370123    79A      0.378278    80A      0.378288  
      81A      0.393550    82A      0.393568    83A      0.400863  
      84A      0.400879    85A      0.426071    86A      0.426100  
      87A      0.437645    88A      0.437653    89A      0.441409  
      90A      0.441419    91A      0.474988    92A      0.475017  
      93A      0.491771    94A      0.491781    95A      0.524176  
      96A      0.524183    97A      0.536716    98A      0.536722  
      99A      0.552899   100A      0.552912   101A      0.569171  
     102A      0.569176   103A      0.583214   104A      0.583219  
     105A      0.601522   106A      0.601552   107A      0.617658  
     108A      0.617673   109A      0.639728   110A      0.639745  
     111A      0.648724   112A      0.648736   113A      0.666117  
     114A      0.666128   115A      0.683648   116A      0.683660  
     117A      0.696625   118A      0.696637   119A      0.702989  
     120A      0.702993   121A      0.732712   122A      0.732726  
     123A      0.742177   124A      0.742187   125A      0.797884  
     126A      0.797886   127A      0.853011   128A      0.853030  
     129A      0.876279   130A      0.876302   131A      0.911843  
     132A      0.911865   133A      0.949127   134A      0.949146  
     135A      0.953807   136A      0.953826   137A      0.982574  
     138A      0.982595   139A      1.040976   140A      1.040998  
     141A      1.088247   142A      1.088253   143A      1.101254  
     144A      1.101264   145A      1.117797   146A      1.117808  
     147A      1.156955   148A      1.156983   149A      1.171566  
     150A      1.171590   151A      1.175789   152A      1.175806  
     153A      1.235441   154A      1.235471   155A      1.271637  
     156A      1.271657   157A      1.318688   158A      1.318707  
     159A      1.357629   160A      1.357649   161A      1.389893  
     162A      1.389907   163A      1.411882   164A      1.411892  
     165A      1.462245   166A      1.462269   167A      1.467415  
     168A      1.467445   169A      1.545440   170A      1.545450  
     171A      1.634480   172A      1.634501   173A      1.649346  
     174A      1.649366   175A      1.714532   176A      1.714550  
     177A      1.755231   178A      1.755245   179A      1.772304  
     180A      1.772311   181A      1.847487   182A      1.847503  
     183A      1.864924   184A      1.864936   185A      1.883223  
     186A      1.883227   187A      1.965875   188A      1.965900  
     189A      1.978898   190A      1.978918   191A      2.025727  
     192A      2.025739   193A      2.037075   194A      2.037095  
     195A      2.122283   196A      2.122303   197A      2.171470  
     198A      2.171487   199A      2.192564   200A      2.192579  
     201A      2.244198   202A      2.244206   203A      2.253070  
     204A      2.253085   205A      2.271795   206A      2.271810  
     207A      2.311675   208A      2.311692   209A      2.379024  
     210A      2.379035   211A      2.429760   212A      2.429782  
     213A      2.438086   214A      2.438098   215A      2.535728  
     216A      2.535740   217A      2.623019   218A      2.623035  
     219A      2.651730   220A      2.651734   221A      2.783112  
     222A      2.783122   223A      2.833072   224A      2.833087  
     225A      2.885543   226A      2.885553   227A      2.973714  
     228A      2.973734   229A      3.001020   230A      3.001031  
     231A      3.015743   232A      3.015760   233A      3.178364  
     234A      3.178388   235A      3.345568   236A      3.345588  
     237A      3.666130   238A      3.666163   239A      3.689851  
     240A      3.689883   241A      3.735877   242A      3.735906  
     243A      3.759118   244A      3.759139   245A      3.789771  
     246A      3.789795   247A      3.804707   248A      3.804728  
     249A      3.899856   250A      3.899884   251A      4.049815  
     252A      4.049838   253A      4.141792   254A      4.141815  
     255A      4.309379   256A      4.309411  

    Final Occupation by Irrep:
              A 
    DOCC [    32 ]

  @DF-RHF Final Energy:  -455.68815391140606

   => Energetics <=

    Nuclear Repulsion Energy =            272.3314244438446963
    One-Electron Energy =               -1163.1302693770605856
    Two-Electron Energy =                 435.1106910218097710
    Total Energy =                       -455.6881539114060615

Computation Completed


Properties will be evaluated at   0.000000,   0.000000,   0.000000 [a0]

Properties computed using the SCF density matrix

  Nuclear Dipole Moment: [e a0]
     X:   858.0002      Y:  -242.3867      Z:   -49.0983

  Electronic Dipole Moment: [e a0]
     X:  -858.0002      Y:   242.3868      Z:    48.9318

  Dipole Moment: [e a0]
     X:    -0.0001      Y:     0.0001      Z:    -0.1666     Total:     0.1666

  Dipole Moment: [D]
     X:    -0.0001      Y:     0.0002      Z:    -0.4234     Total:     0.4234


*** tstop() called on ds1 at Wed Sep  1 13:45:59 2021
Module time:
	user time   =      14.74 seconds =       0.25 minutes
	system time =       0.41 seconds =       0.01 minutes
	total time  =          3 seconds =       0.05 minutes
Total time:
	user time   =      14.74 seconds =       0.25 minutes
	system time =       0.41 seconds =       0.01 minutes
	total time  =          3 seconds =       0.05 minutes

  //>>>>>>>>>>>>>>>>>>>>>>>>>>>>>>>>>>>//
  //            Monomer A HF           //
  //<<<<<<<<<<<<<<<<<<<<<<<<<<<<<<<<<<<//


*** tstart() called on ds1
*** at Wed Sep  1 13:45:59 2021

   => Loading Basis Set <=

    Name: AUG-CC-PVDZ
    Role: ORBITAL
    Keyword: BASIS
    atoms 1-2, 9-10  entry O          line   254 file /theoryfs2/ds/csargent/miniconda3/envs/cle/share/psi4/basis/aug-cc-pvdz.gbs 
    atoms 3-6, 11-14 entry H          line    40 file /theoryfs2/ds/csargent/miniconda3/envs/cle/share/psi4/basis/aug-cc-pvdz.gbs 
    atoms 7-8, 15-16 entry C          line   182 file /theoryfs2/ds/csargent/miniconda3/envs/cle/share/psi4/basis/aug-cc-pvdz.gbs 


         ---------------------------------------------------------
                                   SCF
               by Justin Turney, Rob Parrish, Andy Simmonett
                          and Daniel G. A. Smith
                              RHF Reference
                        6 Threads,   6675 MiB Core
         ---------------------------------------------------------

  ==> Geometry <==

    Molecular point group: c1
    Full point group: C1

    Geometry (in Bohr), charge = 0, multiplicity = 1:

       Center              X                  Y                   Z               Mass       
    ------------   -----------------  -----------------  -----------------  -----------------
         O           -5.531022370000     2.939402900000     1.977626240000    15.994914619570
         O           -2.407088860000     0.908177340000     0.049059090000    15.994914619570
         H           -0.503048870000     1.375792050000     4.638809080000     1.007825032230
         H            0.000000000000     4.251042850000     3.090722380000     1.007825032230
         H           -2.389482150000     4.019167790000     5.401950410000     1.007825032230
         H           -3.747714110000     0.471479300000    -1.215575120000     1.007825032230
         C           -1.418597820000     2.985005000000     3.844051900000    12.000000000000
         C           -3.322637810000     2.286288140000     1.912214130000    12.000000000000
      Gh(O)          32.343527360000   -10.513988350000    -3.473383250000    15.994914619570
      Gh(O)          29.219593850000    -8.482762790000    -5.401950410000    15.994914619570
      Gh(H)          27.315553860000    -8.950377500000    -0.812200410000     1.007825032230
      Gh(H)          26.812504990000   -11.825628300000    -2.360287110000     1.007825032230
      Gh(H)          29.201987140000   -11.593753240000    -0.049059090000     1.007825032230
      Gh(H)          30.560219100000    -8.046064750000    -6.666584610000     1.007825032230
      Gh(C)          28.231102810000   -10.559590450000    -1.606957600000    12.000000000000
      Gh(C)          30.135142800000    -9.860873590000    -3.538795360000    12.000000000000

  Running in c1 symmetry.

  Rotational constants: A =      0.10538  B =      0.00097  C =      0.00097 [cm^-1]
  Rotational constants: A =   3159.28243  B =     29.15749  C =     29.02045 [MHz]
  Nuclear repulsion =  121.748430210971620

  Charge       = 0
  Multiplicity = 1
  Electrons    = 32
  Nalpha       = 16
  Nbeta        = 16

  ==> Algorithm <==

  SCF Algorithm Type is DF.
  DIIS enabled.
  MOM disabled.
  Fractional occupation disabled.
  Guess Type is SAD.
  Energy threshold   = 1.00e-10
  Density threshold  = 1.00e-10
  Integral threshold = 1.00e-12

  ==> Primary Basis <==

  Basis Set: AUG-CC-PVDZ
    Blend: AUG-CC-PVDZ
    Number of shells: 112
    Number of basis functions: 256
    Number of Cartesian functions: 272
    Spherical Harmonics?: true
    Max angular momentum: 2

   => Loading Basis Set <=

    Name: (AUG-CC-PVDZ AUX)
    Role: JKFIT
    Keyword: DF_BASIS_SCF
    atoms 1-2, 9-10  entry O          line   270 file /theoryfs2/ds/csargent/miniconda3/envs/cle/share/psi4/basis/aug-cc-pvdz-jkfit.gbs 
    atoms 3-6, 11-14 entry H          line    70 file /theoryfs2/ds/csargent/miniconda3/envs/cle/share/psi4/basis/aug-cc-pvdz-jkfit.gbs 
    atoms 7-8, 15-16 entry C          line   154 file /theoryfs2/ds/csargent/miniconda3/envs/cle/share/psi4/basis/aug-cc-pvdz-jkfit.gbs 

  ==> Integral Setup <==

  ==> DiskDFJK: Density-Fitted J/K Matrices <==

    J tasked:                  Yes
    K tasked:                  Yes
    wK tasked:                  No
    OpenMP threads:              6
    Integrals threads:           6
    Memory [MiB]:             5006
    Algorithm:                Core
    Integral Cache:           LOAD
    Schwarz Cutoff:          1E-12
    Fitting Condition:       1E-10

   => Auxiliary Basis Set <=

  Basis Set: (AUG-CC-PVDZ AUX)
    Blend: AUG-CC-PVDZ-JKFIT
    Number of shells: 320
    Number of basis functions: 944
    Number of Cartesian functions: 1088
    Spherical Harmonics?: true
    Max angular momentum: 3

  Minimum eigenvalue in the overlap matrix is 1.0277435870E-04.
  Reciprocal condition number of the overlap matrix is 9.6538125233E-06.
    Using symmetric orthogonalization.

  ==> Pre-Iterations <==

  SCF Guess: Superposition of Atomic Densities via on-the-fly atomic UHF (no occupation information).

   -------------------------
    Irrep   Nso     Nmo    
   -------------------------
     A        256     256 
   -------------------------
    Total     256     256
   -------------------------

  ==> Iterations <==

                           Total Energy        Delta E     RMS |[F,P]|

   @DF-RHF iter SAD:  -226.98992942915893   -2.26990e+02   0.00000e+00 
   @DF-RHF iter   1:  -227.68091167868130   -6.90982e-01   2.28211e-03 DIIS
   @DF-RHF iter   2:  -227.80091445208529   -1.20003e-01   1.32478e-03 DIIS
   @DF-RHF iter   3:  -227.84131987154939   -4.04054e-02   2.33581e-04 DIIS
   @DF-RHF iter   4:  -227.84355633508983   -2.23646e-03   1.03339e-04 DIIS
   @DF-RHF iter   5:  -227.84403723609623   -4.80901e-04   2.42136e-05 DIIS
   @DF-RHF iter   6:  -227.84407440409382   -3.71680e-05   1.17797e-05 DIIS
   @DF-RHF iter   7:  -227.84408419221998   -9.78813e-06   3.84272e-06 DIIS
   @DF-RHF iter   8:  -227.84408577380685   -1.58159e-06   1.01577e-06 DIIS
   @DF-RHF iter   9:  -227.84408589045685   -1.16650e-07   2.12954e-07 DIIS
   @DF-RHF iter  10:  -227.84408589427758   -3.82073e-09   5.61608e-08 DIIS
   @DF-RHF iter  11:  -227.84408589448088   -2.03300e-10   1.80147e-08 DIIS
   @DF-RHF iter  12:  -227.84408589450317   -2.22826e-11   4.26466e-09 DIIS
   @DF-RHF iter  13:  -227.84408589450445   -1.27898e-12   8.93569e-10 DIIS
   @DF-RHF iter  14:  -227.84408589450453   -8.52651e-14   2.86711e-10 DIIS
   @DF-RHF iter  15:  -227.84408589450493   -3.97904e-13   1.08058e-10 DIIS
   @DF-RHF iter  16:  -227.84408589450493    0.00000e+00   2.86097e-11 DIIS
  Energy and wave function converged.


  ==> Post-Iterations <==

    Orbital Energies [Eh]
    ---------------------

    Doubly Occupied:                                                      

       1A    -20.629476     2A    -20.552804     3A    -11.396108  
       4A    -11.250979     5A     -1.475853     6A     -1.357486  
       7A     -1.032999     8A     -0.837930     9A     -0.703065  
      10A     -0.688465    11A     -0.657749    12A     -0.576538  
      13A     -0.569697    14A     -0.561403    15A     -0.475343  
      16A     -0.452434  

    Virtual:                                                              

      17A      0.024193    18A      0.032214    19A      0.045627  
      20A      0.046326    21A      0.054899    22A      0.055083  
      23A      0.055945    24A      0.064645    25A      0.084900  
      26A      0.098769    27A      0.104010    28A      0.111636  
      29A      0.116749    30A      0.117323    31A      0.117857  
      32A      0.139854    33A      0.140545    34A      0.140788  
      35A      0.146275    36A      0.151976    37A      0.156356  
      38A      0.164577    39A      0.171320    40A      0.175819  
      41A      0.196303    42A      0.205078    43A      0.209237  
      44A      0.214056    45A      0.225748    46A      0.233376  
      47A      0.234963    48A      0.243546    49A      0.259761  
      50A      0.264270    51A      0.270849    52A      0.276186  
      53A      0.284901    54A      0.290295    55A      0.295802  
      56A      0.319834    57A      0.322781    58A      0.331700  
      59A      0.335633    60A      0.347275    61A      0.368896  
      62A      0.370652    63A      0.378870    64A      0.394119  
      65A      0.398708    66A      0.401429    67A      0.409187  
      68A      0.426690    69A      0.430583    70A      0.437332  
      71A      0.438217    72A      0.442006    73A      0.459924  
      74A      0.475555    75A      0.489694    76A      0.492357  
      77A      0.496751    78A      0.515997    79A      0.524763  
      80A      0.537262    81A      0.541233    82A      0.543011  
      83A      0.553487    84A      0.559076    85A      0.569740  
      86A      0.583791    87A      0.586222    88A      0.602101  
      89A      0.615787    90A      0.618231    91A      0.635701  
      92A      0.636530    93A      0.640311    94A      0.649301  
      95A      0.666705    96A      0.674589    97A      0.684210  
      98A      0.689392    99A      0.697190   100A      0.700259  
     101A      0.703571   102A      0.727533   103A      0.733289  
     104A      0.742748   105A      0.753106   106A      0.759747  
     107A      0.786582   108A      0.798460   109A      0.815194  
     110A      0.819536   111A      0.847658   112A      0.853581  
     113A      0.876833   114A      0.887643   115A      0.895849  
     116A      0.912403   117A      0.947071   118A      0.949697  
     119A      0.954375   120A      0.957565   121A      0.975367  
     122A      0.983144   123A      1.037441   124A      1.041547  
     125A      1.044670   126A      1.088819   127A      1.101839  
     128A      1.105875   129A      1.118367   130A      1.157520  
     131A      1.162051   132A      1.172141   133A      1.176359  
     134A      1.190351   135A      1.236033   136A      1.260142  
     137A      1.269736   138A      1.272187   139A      1.319230  
     140A      1.329049   141A      1.358181   142A      1.383595  
     143A      1.390440   144A      1.395732   145A      1.412451  
     146A      1.434172   147A      1.457835   148A      1.462795  
     149A      1.467129   150A      1.467976   151A      1.469002  
     152A      1.537023   153A      1.546014   154A      1.568784  
     155A      1.635048   156A      1.649915   157A      1.683177  
     158A      1.715101   159A      1.716964   160A      1.755800  
     161A      1.772884   162A      1.799473   163A      1.848039  
     164A      1.865503   165A      1.882299   166A      1.883811  
     167A      1.936467   168A      1.966454   169A      1.979453  
     170A      2.026298   171A      2.037642   172A      2.070234  
     173A      2.122848   174A      2.172049   175A      2.193137  
     176A      2.244771   177A      2.250362   178A      2.253643  
     179A      2.264383   180A      2.272354   181A      2.273438  
     182A      2.302437   183A      2.312246   184A      2.336052  
     185A      2.338557   186A      2.361588   187A      2.376031  
     188A      2.379604   189A      2.430330   190A      2.438663  
     191A      2.466661   192A      2.505352   193A      2.536303  
     194A      2.585486   195A      2.623585   196A      2.652307  
     197A      2.664190   198A      2.697791   199A      2.753826  
     200A      2.783681   201A      2.785691   202A      2.823705  
     203A      2.833647   204A      2.886121   205A      2.915500  
     206A      2.974291   207A      3.001602   208A      3.016316  
     209A      3.042229   210A      3.178935   211A      3.181955  
     212A      3.278105   213A      3.310231   214A      3.346124  
     215A      3.356410   216A      3.431061   217A      3.486239  
     218A      3.662344   219A      3.666705   220A      3.690423  
     221A      3.736441   222A      3.739670   223A      3.759662  
     224A      3.790324   225A      3.805251   226A      3.900417  
     227A      4.025726   228A      4.050368   229A      4.142340  
     230A      4.153276   231A      4.309953   232A      4.504597  
     233A      4.616512   234A      4.724513   235A      4.925572  
     236A      4.969406   237A      4.977636   238A      5.001346  
     239A      5.016497   240A      5.033362   241A      5.052067  
     242A      5.221635   243A      5.243800   244A      5.614840  
     245A      5.660859   246A      5.790981   247A      5.868715  
     248A      6.052470   249A      6.228542   250A      6.520422  
     251A      6.789925   252A      7.092635   253A     18.345858  
     254A     18.940368   255A     33.525238   256A     33.563217  

    Final Occupation by Irrep:
              A 
    DOCC [    16 ]

  @DF-RHF Final Energy:  -227.84408589450493

   => Energetics <=

    Nuclear Repulsion Energy =            121.7484302109716197
    One-Electron Energy =                -552.7483714342610028
    Two-Electron Energy =                 203.1558553287844688
    Total Energy =                       -227.8440858945049285

Computation Completed


Properties will be evaluated at   0.000000,   0.000000,   0.000000 [a0]

Properties computed using the SCF density matrix

  Nuclear Dipole Moment: [e a0]
     X:   -98.5925      Y:    72.5259      Z:    62.6670

  Electronic Dipole Moment: [e a0]
     X:    99.4206      Y:   -72.8088      Z:   -62.7502

  Dipole Moment: [e a0]
     X:     0.8281      Y:    -0.2829      Z:    -0.0832     Total:     0.8790

  Dipole Moment: [D]
     X:     2.1048      Y:    -0.7191      Z:    -0.2116     Total:     2.2342


*** tstop() called on ds1 at Wed Sep  1 13:46:01 2021
Module time:
	user time   =      10.64 seconds =       0.18 minutes
	system time =       0.22 seconds =       0.00 minutes
	total time  =          2 seconds =       0.03 minutes
Total time:
	user time   =      25.56 seconds =       0.43 minutes
	system time =       0.64 seconds =       0.01 minutes
	total time  =          5 seconds =       0.08 minutes

  //>>>>>>>>>>>>>>>>>>>>>>>>>>>>>>>>>>>//
  //            Monomer B HF           //
  //<<<<<<<<<<<<<<<<<<<<<<<<<<<<<<<<<<<//


*** tstart() called on ds1
*** at Wed Sep  1 13:46:01 2021

   => Loading Basis Set <=

    Name: AUG-CC-PVDZ
    Role: ORBITAL
    Keyword: BASIS
    atoms 1-2, 9-10  entry O          line   254 file /theoryfs2/ds/csargent/miniconda3/envs/cle/share/psi4/basis/aug-cc-pvdz.gbs 
    atoms 3-6, 11-14 entry H          line    40 file /theoryfs2/ds/csargent/miniconda3/envs/cle/share/psi4/basis/aug-cc-pvdz.gbs 
    atoms 7-8, 15-16 entry C          line   182 file /theoryfs2/ds/csargent/miniconda3/envs/cle/share/psi4/basis/aug-cc-pvdz.gbs 


         ---------------------------------------------------------
                                   SCF
               by Justin Turney, Rob Parrish, Andy Simmonett
                          and Daniel G. A. Smith
                              RHF Reference
                        6 Threads,   6675 MiB Core
         ---------------------------------------------------------

  ==> Geometry <==

    Molecular point group: c1
    Full point group: C1

    Geometry (in Bohr), charge = 0, multiplicity = 1:

       Center              X                  Y                   Z               Mass       
    ------------   -----------------  -----------------  -----------------  -----------------
      Gh(O)          -5.531022370000     2.939402900000     1.977626240000    15.994914619570
      Gh(O)          -2.407088860000     0.908177340000     0.049059090000    15.994914619570
      Gh(H)          -0.503048870000     1.375792050000     4.638809080000     1.007825032230
      Gh(H)           0.000000000000     4.251042850000     3.090722380000     1.007825032230
      Gh(H)          -2.389482150000     4.019167790000     5.401950410000     1.007825032230
      Gh(H)          -3.747714110000     0.471479300000    -1.215575120000     1.007825032230
      Gh(C)          -1.418597820000     2.985005000000     3.844051900000    12.000000000000
      Gh(C)          -3.322637810000     2.286288140000     1.912214130000    12.000000000000
         O           32.343527360000   -10.513988350000    -3.473383250000    15.994914619570
         O           29.219593850000    -8.482762790000    -5.401950410000    15.994914619570
         H           27.315553860000    -8.950377500000    -0.812200410000     1.007825032230
         H           26.812504990000   -11.825628300000    -2.360287110000     1.007825032230
         H           29.201987140000   -11.593753240000    -0.049059090000     1.007825032230
         H           30.560219100000    -8.046064750000    -6.666584610000     1.007825032230
         C           28.231102810000   -10.559590450000    -1.606957600000    12.000000000000
         C           30.135142800000    -9.860873590000    -3.538795360000    12.000000000000

  Running in c1 symmetry.

  Rotational constants: A =      0.10538  B =      0.00097  C =      0.00097 [cm^-1]
  Rotational constants: A =   3159.28243  B =     29.15749  C =     29.02045 [MHz]
  Nuclear repulsion =  121.748430195491949

  Charge       = 0
  Multiplicity = 1
  Electrons    = 32
  Nalpha       = 16
  Nbeta        = 16

  ==> Algorithm <==

  SCF Algorithm Type is DF.
  DIIS enabled.
  MOM disabled.
  Fractional occupation disabled.
  Guess Type is SAD.
  Energy threshold   = 1.00e-10
  Density threshold  = 1.00e-10
  Integral threshold = 1.00e-12

  ==> Primary Basis <==

  Basis Set: AUG-CC-PVDZ
    Blend: AUG-CC-PVDZ
    Number of shells: 112
    Number of basis functions: 256
    Number of Cartesian functions: 272
    Spherical Harmonics?: true
    Max angular momentum: 2

   => Loading Basis Set <=

    Name: (AUG-CC-PVDZ AUX)
    Role: JKFIT
    Keyword: DF_BASIS_SCF
    atoms 1-2, 9-10  entry O          line   270 file /theoryfs2/ds/csargent/miniconda3/envs/cle/share/psi4/basis/aug-cc-pvdz-jkfit.gbs 
    atoms 3-6, 11-14 entry H          line    70 file /theoryfs2/ds/csargent/miniconda3/envs/cle/share/psi4/basis/aug-cc-pvdz-jkfit.gbs 
    atoms 7-8, 15-16 entry C          line   154 file /theoryfs2/ds/csargent/miniconda3/envs/cle/share/psi4/basis/aug-cc-pvdz-jkfit.gbs 

  ==> Integral Setup <==

  ==> DiskDFJK: Density-Fitted J/K Matrices <==

    J tasked:                  Yes
    K tasked:                  Yes
    wK tasked:                  No
    OpenMP threads:              6
    Integrals threads:           6
    Memory [MiB]:             5006
    Algorithm:                Core
    Integral Cache:           LOAD
    Schwarz Cutoff:          1E-12
    Fitting Condition:       1E-10

   => Auxiliary Basis Set <=

  Basis Set: (AUG-CC-PVDZ AUX)
    Blend: AUG-CC-PVDZ-JKFIT
    Number of shells: 320
    Number of basis functions: 944
    Number of Cartesian functions: 1088
    Spherical Harmonics?: true
    Max angular momentum: 3

  Minimum eigenvalue in the overlap matrix is 1.0277435870E-04.
  Reciprocal condition number of the overlap matrix is 9.6538125233E-06.
    Using symmetric orthogonalization.

  ==> Pre-Iterations <==

  SCF Guess: Superposition of Atomic Densities via on-the-fly atomic UHF (no occupation information).

   -------------------------
    Irrep   Nso     Nmo    
   -------------------------
     A        256     256 
   -------------------------
    Total     256     256
   -------------------------

  ==> Iterations <==

                           Total Energy        Delta E     RMS |[F,P]|

   @DF-RHF iter SAD:  -226.98992942886281   -2.26990e+02   0.00000e+00 
   @DF-RHF iter   1:  -227.68091167851469   -6.90982e-01   2.28211e-03 DIIS
   @DF-RHF iter   2:  -227.80091445187338   -1.20003e-01   1.32478e-03 DIIS
   @DF-RHF iter   3:  -227.84131987130743   -4.04054e-02   2.33581e-04 DIIS
   @DF-RHF iter   4:  -227.84355633484358   -2.23646e-03   1.03339e-04 DIIS
   @DF-RHF iter   5:  -227.84403723584876   -4.80901e-04   2.42136e-05 DIIS
   @DF-RHF iter   6:  -227.84407440384669   -3.71680e-05   1.17797e-05 DIIS
   @DF-RHF iter   7:  -227.84408419197280   -9.78813e-06   3.84272e-06 DIIS
   @DF-RHF iter   8:  -227.84408577355987   -1.58159e-06   1.01577e-06 DIIS
   @DF-RHF iter   9:  -227.84408589020990   -1.16650e-07   2.12954e-07 DIIS
   @DF-RHF iter  10:  -227.84408589403051   -3.82062e-09   5.61608e-08 DIIS
   @DF-RHF iter  11:  -227.84408589423424   -2.03727e-10   1.80147e-08 DIIS
   @DF-RHF iter  12:  -227.84408589425624   -2.19984e-11   4.26466e-09 DIIS
   @DF-RHF iter  13:  -227.84408589425738   -1.13687e-12   8.93569e-10 DIIS
   @DF-RHF iter  14:  -227.84408589425780   -4.26326e-13   2.86711e-10 DIIS
   @DF-RHF iter  15:  -227.84408589425749    3.12639e-13   1.08059e-10 DIIS
   @DF-RHF iter  16:  -227.84408589425766   -1.70530e-13   2.86098e-11 DIIS
  Energy and wave function converged.


  ==> Post-Iterations <==

    Orbital Energies [Eh]
    ---------------------

    Doubly Occupied:                                                      

       1A    -20.629476     2A    -20.552804     3A    -11.396108  
       4A    -11.250979     5A     -1.475853     6A     -1.357486  
       7A     -1.032999     8A     -0.837930     9A     -0.703065  
      10A     -0.688465    11A     -0.657749    12A     -0.576538  
      13A     -0.569697    14A     -0.561403    15A     -0.475343  
      16A     -0.452434  

    Virtual:                                                              

      17A      0.024178    18A      0.032214    19A      0.045627  
      20A      0.046297    21A      0.054901    22A      0.055083  
      23A      0.055943    24A      0.064644    25A      0.084882  
      26A      0.098769    27A      0.103988    28A      0.111631  
      29A      0.116760    30A      0.117323    31A      0.117857  
      32A      0.139842    33A      0.140545    34A      0.140773  
      35A      0.146282    36A      0.151976    37A      0.156356  
      38A      0.164577    39A      0.171320    40A      0.175803  
      41A      0.196303    42A      0.205044    43A      0.209237  
      44A      0.214020    45A      0.225718    46A      0.233376  
      47A      0.234963    48A      0.243527    49A      0.259746  
      50A      0.264241    51A      0.270849    52A      0.276167  
      53A      0.284871    54A      0.290295    55A      0.295802  
      56A      0.319834    57A      0.322781    58A      0.331688  
      59A      0.335629    60A      0.347275    61A      0.368897  
      62A      0.370652    63A      0.378870    64A      0.394119  
      65A      0.398710    66A      0.401429    67A      0.409184  
      68A      0.426690    69A      0.430578    70A      0.437325  
      71A      0.438217    72A      0.442006    73A      0.459884  
      74A      0.475555    75A      0.489671    76A      0.492357  
      77A      0.496728    78A      0.515975    79A      0.524763  
      80A      0.537262    81A      0.541195    82A      0.543004  
      83A      0.553487    84A      0.559064    85A      0.569740  
      86A      0.583791    87A      0.586214    88A      0.602101  
      89A      0.615762    90A      0.618231    91A      0.635690  
      92A      0.636512    93A      0.640311    94A      0.649301  
      95A      0.666705    96A      0.674571    97A      0.684210  
      98A      0.689385    99A      0.697190   100A      0.700254  
     101A      0.703571   102A      0.727533   103A      0.733289  
     104A      0.742748   105A      0.753095   106A      0.759744  
     107A      0.786570   108A      0.798460   109A      0.815191  
     110A      0.819533   111A      0.847648   112A      0.853581  
     113A      0.876833   114A      0.887642   115A      0.895834  
     116A      0.912403   117A      0.947061   118A      0.949697  
     119A      0.954375   120A      0.957552   121A      0.975351  
     122A      0.983144   123A      1.037421   124A      1.041547  
     125A      1.044648   126A      1.088819   127A      1.101839  
     128A      1.105859   129A      1.118367   130A      1.157520  
     131A      1.162026   132A      1.172141   133A      1.176359  
     134A      1.190321   135A      1.236033   136A      1.260113  
     137A      1.269707   138A      1.272187   139A      1.319230  
     140A      1.329021   141A      1.358181   142A      1.383569  
     143A      1.390440   144A      1.395701   145A      1.412451  
     146A      1.434151   147A      1.457799   148A      1.462795  
     149A      1.467099   150A      1.467976   151A      1.468970  
     152A      1.536997   153A      1.546014   154A      1.568756  
     155A      1.635048   156A      1.649915   157A      1.683149  
     158A      1.715101   159A      1.716942   160A      1.755800  
     161A      1.772884   162A      1.799445   163A      1.848039  
     164A      1.865503   165A      1.882302   166A      1.883811  
     167A      1.936464   168A      1.966454   169A      1.979453  
     170A      2.026298   171A      2.037642   172A      2.070228  
     173A      2.122848   174A      2.172049   175A      2.193137  
     176A      2.244771   177A      2.250367   178A      2.253643  
     179A      2.264382   180A      2.272354   181A      2.273408  
     182A      2.302432   183A      2.312246   184A      2.336054  
     185A      2.338557   186A      2.361576   187A      2.376013  
     188A      2.379604   189A      2.430330   190A      2.438663  
     191A      2.466637   192A      2.505317   193A      2.536303  
     194A      2.585470   195A      2.623585   196A      2.652307  
     197A      2.664168   198A      2.697784   199A      2.753822  
     200A      2.783681   201A      2.785687   202A      2.823701  
     203A      2.833647   204A      2.886121   205A      2.915478  
     206A      2.974291   207A      3.001602   208A      3.016316  
     209A      3.042217   210A      3.178935   211A      3.181948  
     212A      3.278098   213A      3.310221   214A      3.346124  
     215A      3.356402   216A      3.431048   217A      3.486235  
     218A      3.662330   219A      3.666705   220A      3.690423  
     221A      3.736441   222A      3.739638   223A      3.759662  
     224A      3.790324   225A      3.805251   226A      3.900417  
     227A      4.025709   228A      4.050368   229A      4.142340  
     230A      4.153234   231A      4.309953   232A      4.504574  
     233A      4.616481   234A      4.724504   235A      4.925545  
     236A      4.969382   237A      4.977599   238A      5.001324  
     239A      5.016465   240A      5.033326   241A      5.052062  
     242A      5.221620   243A      5.243791   244A      5.614798  
     245A      5.660825   246A      5.790947   247A      5.868694  
     248A      6.052445   249A      6.228522   250A      6.520383  
     251A      6.789890   252A      7.092608   253A     18.345849  
     254A     18.940356   255A     33.525219   256A     33.563174  

    Final Occupation by Irrep:
              A 
    DOCC [    16 ]

  @DF-RHF Final Energy:  -227.84408589425766

   => Energetics <=

    Nuclear Repulsion Energy =            121.7484301954919488
    One-Electron Energy =                -552.7483713985810709
    Two-Electron Energy =                 203.1558553088314625
    Total Energy =                       -227.8440858942576597

Computation Completed


Properties will be evaluated at   0.000000,   0.000000,   0.000000 [a0]

Properties computed using the SCF density matrix

  Nuclear Dipole Moment: [e a0]
     X:   956.5927      Y:  -314.9126      Z:  -111.7653

  Electronic Dipole Moment: [e a0]
     X:  -957.4208      Y:   315.1955      Z:   111.6821

  Dipole Moment: [e a0]
     X:    -0.8281      Y:     0.2829      Z:    -0.0832     Total:     0.8790

  Dipole Moment: [D]
     X:    -2.1048      Y:     0.7191      Z:    -0.2116     Total:     2.2342


*** tstop() called on ds1 at Wed Sep  1 13:46:04 2021
Module time:
	user time   =      11.29 seconds =       0.19 minutes
	system time =       0.37 seconds =       0.01 minutes
	total time  =          3 seconds =       0.05 minutes
Total time:
	user time   =      37.07 seconds =       0.62 minutes
	system time =       1.02 seconds =       0.02 minutes
	total time  =          8 seconds =       0.13 minutes
  Constructing Basis Sets for SAPT...

   => Loading Basis Set <=

    Name: (AUG-CC-PVDZ AUX)
    Role: RIFIT
    Keyword: DF_BASIS_SAPT
    atoms 1-2, 9-10  entry O          line   204 file /theoryfs2/ds/csargent/miniconda3/envs/cle/share/psi4/basis/aug-cc-pvdz-ri.gbs 
    atoms 3-6, 11-14 entry H          line    30 file /theoryfs2/ds/csargent/miniconda3/envs/cle/share/psi4/basis/aug-cc-pvdz-ri.gbs 
    atoms 7-8, 15-16 entry C          line   112 file /theoryfs2/ds/csargent/miniconda3/envs/cle/share/psi4/basis/aug-cc-pvdz-ri.gbs 


  //>>>>>>>>>>>>>>>>>>>>>>>>>>>>>>>>>>>//
  //               SAPT0               //
  //<<<<<<<<<<<<<<<<<<<<<<<<<<<<<<<<<<<//


*** tstart() called on ds1
*** at Wed Sep  1 13:46:04 2021

        SAPT0  
    Ed Hohenstein
     6 June 2009

      Orbital Information
  --------------------------
    NSO        =       256
    NMO        =       256
    NRI        =       760
    NOCC A     =        16
    NOCC B     =        16
    FOCC A     =         4
    FOCC B     =         4
    NVIR A     =       240
    NVIR B     =       240

    Elst10,r            =     0.000017930098 [Eh]
    Exch10              =     0.000000000000 [Eh]
    Exch10 (S^2)        =     0.000000000000 [Eh]

    Iter     Energy [mEh]          dE [mEh]         Residual      Time [s]
       1      -0.00001329       0.000013288       0.038966269             0
       2      -0.00001300      -0.000000288       0.011846571             0
       3      -0.00001449       0.000001488       0.003983332             0
       4      -0.00001466       0.000000170       0.001466069             0
       5      -0.00001460      -0.000000061       0.000742525             0
       6      -0.00001458      -0.000000022       0.000171110             0
       7      -0.00001458       0.000000007       0.000047065             0
       8      -0.00001458       0.000000001       0.000010915             0
       9      -0.00001458      -0.000000000       0.000002745             0
      10      -0.00001458      -0.000000000       0.000000679             0

    CHF Iterations converged


    Iter     Energy [mEh]          dE [mEh]         Residual      Time [s]
       1      -0.00001137       0.000011370       0.033866316             1
       2      -0.00001140       0.000000026       0.011578727             1
       3      -0.00001274       0.000001342       0.003752608             1
       4      -0.00001289       0.000000148       0.001285505             1
       5      -0.00001282      -0.000000066       0.000553387             1
       6      -0.00001281      -0.000000008       0.000166180             1
       7      -0.00001282       0.000000006       0.000050508             1
       8      -0.00001282       0.000000001       0.000012240             1
       9      -0.00001282      -0.000000000       0.000003337             1
      10      -0.00001282      -0.000000000       0.000000913             1

    CHF Iterations converged

    Ind20,r (A<-B)      =    -0.000000014583 [Eh]
    Ind20,r (B<-A)      =    -0.000000012818 [Eh]
    Ind20,r             =    -0.000000027401 [Eh]
    Exch-Ind20,r (A<-B) =     0.000000000000 [Eh]
    Exch-Ind20,r (B<-A) =     0.000000000000 [Eh]
    Exch-Ind20,r        =     0.000000000000 [Eh]
    Disp20              =    -0.000000334684 [Eh]
    Disp20 (SS)         =    -0.000000167342 [Eh]
    Disp20 (OS)         =    -0.000000167342 [Eh]
    Exch-Disp20         =     0.000000000000 [Eh]
    Exch-Disp20 (SS)    =     0.000000000000 [Eh]
    Exch-Disp20 (OS)    =     0.000000000000 [Eh]

    SAPT Results 
  --------------------------------------------------------------------------------------------------------
    Electrostatics                  0.01793010 [mEh]       0.01125131 [kcal/mol]       0.04707547 [kJ/mol]
      Elst10,r                      0.01793010 [mEh]       0.01125131 [kcal/mol]       0.04707547 [kJ/mol]

    Exchange                        0.00000000 [mEh]       0.00000000 [kcal/mol]       0.00000000 [kJ/mol]
      Exch10                        0.00000000 [mEh]       0.00000000 [kcal/mol]       0.00000000 [kJ/mol]
      Exch10(S^2)                   0.00000000 [mEh]       0.00000000 [kcal/mol]       0.00000000 [kJ/mol]

    Induction                      -0.00005274 [mEh]      -0.00003310 [kcal/mol]      -0.00013847 [kJ/mol]
      Ind20,r                      -0.00002740 [mEh]      -0.00001719 [kcal/mol]      -0.00007194 [kJ/mol]
      Exch-Ind20,r                  0.00000000 [mEh]       0.00000000 [kcal/mol]       0.00000000 [kJ/mol]
      delta HF,r (2)               -0.00002534 [mEh]      -0.00001590 [kcal/mol]      -0.00006653 [kJ/mol]

    Dispersion                     -0.00033468 [mEh]      -0.00021002 [kcal/mol]      -0.00087871 [kJ/mol]
      Disp20                       -0.00033468 [mEh]      -0.00021002 [kcal/mol]      -0.00087871 [kJ/mol]
      Exch-Disp20                   0.00000000 [mEh]       0.00000000 [kcal/mol]       0.00000000 [kJ/mol]
      Disp20 (SS)                  -0.00016734 [mEh]      -0.00010501 [kcal/mol]      -0.00043936 [kJ/mol]
      Disp20 (OS)                  -0.00016734 [mEh]      -0.00010501 [kcal/mol]      -0.00043936 [kJ/mol]
      Exch-Disp20 (SS)              0.00000000 [mEh]       0.00000000 [kcal/mol]       0.00000000 [kJ/mol]
      Exch-Disp20 (OS)              0.00000000 [mEh]       0.00000000 [kcal/mol]       0.00000000 [kJ/mol]

  Total HF                          0.01787736 [mEh]       0.01121821 [kcal/mol]       0.04693699 [kJ/mol]
  Total SAPT0                       0.01754267 [mEh]       0.01100819 [kcal/mol]       0.04605828 [kJ/mol]

  Special recipe for scaled SAPT0 (see Manual):
    Electrostatics sSAPT0           0.01793010 [mEh]       0.01125131 [kcal/mol]       0.04707547 [kJ/mol]
    Exchange sSAPT0                 0.00000000 [mEh]       0.00000000 [kcal/mol]       0.00000000 [kJ/mol]
    Induction sSAPT0               -0.00005274 [mEh]      -0.00003310 [kcal/mol]      -0.00013847 [kJ/mol]
    Dispersion sSAPT0              -0.00033468 [mEh]      -0.00021002 [kcal/mol]      -0.00087871 [kJ/mol]
  Total sSAPT0                      0.01754267 [mEh]       0.01100819 [kcal/mol]       0.04605828 [kJ/mol]
  --------------------------------------------------------------------------------------------------------

*** tstop() called on ds1 at Wed Sep  1 13:46:10 2021
Module time:
	user time   =      28.01 seconds =       0.47 minutes
	system time =       2.40 seconds =       0.04 minutes
	total time  =          6 seconds =       0.10 minutes
Total time:
	user time   =      65.80 seconds =       1.10 minutes
	system time =       3.44 seconds =       0.06 minutes
	total time  =         14 seconds =       0.23 minutes


Warning! sapt0 does not have an associated derived wavefunction.The returned wavefunction is the dimer SCF wavefunction.


    Psi4 stopped on: Wednesday, 01 September 2021 01:46PM
    Psi4 wall time for execution: 0:00:14.42

*** Psi4 exiting successfully. Buy a developer a beer!
