
    -----------------------------------------------------------------------
          Psi4: An Open-Source Ab Initio Electronic Structure Package
                               Psi4 1.4rc3 

                         Git: Rev {HEAD} 080dba6 


    D. G. A. Smith, L. A. Burns, A. C. Simmonett, R. M. Parrish,
    M. C. Schieber, R. Galvelis, P. Kraus, H. Kruse, R. Di Remigio,
    A. Alenaizan, A. M. James, S. Lehtola, J. P. Misiewicz, M. Scheurer,
    R. A. Shaw, J. B. Schriber, Y. Xie, Z. L. Glick, D. A. Sirianni,
    J. S. O'Brien, J. M. Waldrop, A. Kumar, E. G. Hohenstein,
    B. P. Pritchard, B. R. Brooks, H. F. Schaefer III, A. Yu. Sokolov,
    K. Patkowski, A. E. DePrince III, U. Bozkaya, R. A. King,
    F. A. Evangelista, J. M. Turney, T. D. Crawford, C. D. Sherrill,
    J. Chem. Phys. 152(18) 184108 (2020). https://doi.org/10.1063/5.0006002

                            Additional Code Authors
    E. T. Seidl, C. L. Janssen, E. F. Valeev, M. L. Leininger,
    J. F. Gonthier, R. M. Richard, H. R. McAlexander, M. Saitow, X. Wang,
    P. Verma, and M. H. Lechner

             Previous Authors, Complete List of Code Contributors,
                       and Citations for Specific Modules
    https://github.com/psi4/psi4/blob/master/codemeta.json
    https://github.com/psi4/psi4/graphs/contributors
    http://psicode.org/psi4manual/master/introduction.html#citing-psifour

    -----------------------------------------------------------------------


    Psi4 started on: Wednesday, 01 September 2021 02:12PM

    Process ID: 21118
    Host:       ds1
    PSIDATADIR: /theoryfs2/ds/csargent/miniconda3/envs/cle/share/psi4
    Memory:     500.0 MiB
    Threads:    6
    
  ==> Input File <==

--------------------------------------------------------------------------
# PSI4 file produced by CrystaLattE

# Generated from:               acetic_acid.xyz
# Psithon input for N-mer:      2mer-0+417
# Number of atoms per monomer:  [8, 8]
# Number of replicas:           2
# COM priority:                 1.806959228645e-05
# Minimum COM separations:      20.166 
# Separation priority:          3.020463930101e-05
# Minimum monomer separations:  16.992 
# Cutoff priority:              9.406575344160e-07
# Nuclear repulsion energy:     270.41316002842797

memory 7 GB

molecule Dimer_0_417 {
  O           -5.53102237       2.93940290       1.97762624 
  O           -2.40708886       0.90817734       0.04905909 
  H           -0.50304887       1.37579205       4.63880908 
  H            0.00000000       4.25104285       3.09072238 
  H           -2.38948215       4.01916779       5.40195041 
  H           -3.74771411       0.47147930      -1.21557512 
  C           -1.41859782       2.98500500       3.84405190 
  C           -3.32263781       2.28628814       1.91221413 
--
  O          -18.10724422      16.53810254     -30.72843073 
  O          -14.98331071      18.56932810     -32.65699789 
  H          -13.07927073      18.10171339     -28.06724789 
  H          -12.57622185      15.22646259     -29.61533459 
  H          -14.96570400      15.45833765     -27.30410656 
  H          -16.32393596      19.00602614     -33.92163209 
  C          -13.99481968      16.49250044     -28.86200508 
  C          -15.89885966      17.19121730     -30.79384284 
units = au
no_com
no_reorient
}

set {
  e_convergence 10
  d_convergence 10
  scf_type df
  mp2_type df
  cc_type df
  freeze_core true
}

energy('sapt0/aug-cc-pvdz')

--------------------------------------------------------------------------

  Memory set to   6.519 GiB by Python driver.

Scratch directory: /scratch/csargent/psi4.17562.33784/

Scratch directory: /scratch/csargent/psi4.17562.33784/

  //>>>>>>>>>>>>>>>>>>>>>>>>>>>>>>>>>>>//
  //              Dimer HF             //
  //<<<<<<<<<<<<<<<<<<<<<<<<<<<<<<<<<<<//


*** tstart() called on ds1
*** at Wed Sep  1 14:12:13 2021

   => Loading Basis Set <=

    Name: AUG-CC-PVDZ
    Role: ORBITAL
    Keyword: BASIS
    atoms 1-2, 9-10  entry O          line   254 file /theoryfs2/ds/csargent/miniconda3/envs/cle/share/psi4/basis/aug-cc-pvdz.gbs 
    atoms 3-6, 11-14 entry H          line    40 file /theoryfs2/ds/csargent/miniconda3/envs/cle/share/psi4/basis/aug-cc-pvdz.gbs 
    atoms 7-8, 15-16 entry C          line   182 file /theoryfs2/ds/csargent/miniconda3/envs/cle/share/psi4/basis/aug-cc-pvdz.gbs 


         ---------------------------------------------------------
                                   SCF
               by Justin Turney, Rob Parrish, Andy Simmonett
                          and Daniel G. A. Smith
                              RHF Reference
                        6 Threads,   6675 MiB Core
         ---------------------------------------------------------

  ==> Geometry <==

    Molecular point group: c1
    Full point group: C1

    Geometry (in Bohr), charge = 0, multiplicity = 1:

       Center              X                  Y                   Z               Mass       
    ------------   -----------------  -----------------  -----------------  -----------------
         O           -5.531022370000     2.939402900000     1.977626240000    15.994914619570
         O           -2.407088860000     0.908177340000     0.049059090000    15.994914619570
         H           -0.503048870000     1.375792050000     4.638809080000     1.007825032230
         H            0.000000000000     4.251042850000     3.090722380000     1.007825032230
         H           -2.389482150000     4.019167790000     5.401950410000     1.007825032230
         H           -3.747714110000     0.471479300000    -1.215575120000     1.007825032230
         C           -1.418597820000     2.985005000000     3.844051900000    12.000000000000
         C           -3.322637810000     2.286288140000     1.912214130000    12.000000000000
         O          -18.107244220000    16.538102540000   -30.728430730000    15.994914619570
         O          -14.983310710000    18.569328100000   -32.656997890000    15.994914619570
         H          -13.079270730000    18.101713390000   -28.067247890000     1.007825032230
         H          -12.576221850000    15.226462590000   -29.615334590000     1.007825032230
         H          -14.965704000000    15.458337650000   -27.304106560000     1.007825032230
         H          -16.323935960000    19.006026140000   -33.921632090000     1.007825032230
         C          -13.994819680000    16.492500440000   -28.862005080000    12.000000000000
         C          -15.898859660000    17.191217300000   -30.793842840000    12.000000000000

  Running in c1 symmetry.

  Rotational constants: A =      0.04057  B =      0.00067  C =      0.00066 [cm^-1]
  Rotational constants: A =   1216.14527  B =     20.00575  C =     19.76521 [MHz]
  Nuclear repulsion =  270.413160092944224

  Charge       = 0
  Multiplicity = 1
  Electrons    = 64
  Nalpha       = 32
  Nbeta        = 32

  ==> Algorithm <==

  SCF Algorithm Type is DF.
  DIIS enabled.
  MOM disabled.
  Fractional occupation disabled.
  Guess Type is SAD.
  Energy threshold   = 1.00e-10
  Density threshold  = 1.00e-10
  Integral threshold = 1.00e-12

  ==> Primary Basis <==

  Basis Set: AUG-CC-PVDZ
    Blend: AUG-CC-PVDZ
    Number of shells: 112
    Number of basis functions: 256
    Number of Cartesian functions: 272
    Spherical Harmonics?: true
    Max angular momentum: 2

   => Loading Basis Set <=

    Name: (AUG-CC-PVDZ AUX)
    Role: JKFIT
    Keyword: DF_BASIS_SCF
    atoms 1-2, 9-10  entry O          line   270 file /theoryfs2/ds/csargent/miniconda3/envs/cle/share/psi4/basis/aug-cc-pvdz-jkfit.gbs 
    atoms 3-6, 11-14 entry H          line    70 file /theoryfs2/ds/csargent/miniconda3/envs/cle/share/psi4/basis/aug-cc-pvdz-jkfit.gbs 
    atoms 7-8, 15-16 entry C          line   154 file /theoryfs2/ds/csargent/miniconda3/envs/cle/share/psi4/basis/aug-cc-pvdz-jkfit.gbs 

  ==> Integral Setup <==

  ==> DiskDFJK: Density-Fitted J/K Matrices <==

    J tasked:                  Yes
    K tasked:                  Yes
    wK tasked:                  No
    OpenMP threads:              6
    Integrals threads:           6
    Memory [MiB]:             5006
    Algorithm:                Core
    Integral Cache:           SAVE
    Schwarz Cutoff:          1E-12
    Fitting Condition:       1E-10

   => Auxiliary Basis Set <=

  Basis Set: (AUG-CC-PVDZ AUX)
    Blend: AUG-CC-PVDZ-JKFIT
    Number of shells: 320
    Number of basis functions: 944
    Number of Cartesian functions: 1088
    Spherical Harmonics?: true
    Max angular momentum: 3

  Minimum eigenvalue in the overlap matrix is 1.0277539959E-04.
  Reciprocal condition number of the overlap matrix is 9.6539104585E-06.
    Using symmetric orthogonalization.

  ==> Pre-Iterations <==

  SCF Guess: Superposition of Atomic Densities via on-the-fly atomic UHF (no occupation information).

   -------------------------
    Irrep   Nso     Nmo    
   -------------------------
     A        256     256 
   -------------------------
    Total     256     256
   -------------------------

  ==> Iterations <==

                           Total Energy        Delta E     RMS |[F,P]|

   @DF-RHF iter SAD:  -453.97985886132687   -4.53980e+02   0.00000e+00 
   @DF-RHF iter   1:  -455.36180079306490   -1.38194e+00   3.22743e-03 DIIS
   @DF-RHF iter   2:  -455.60180643816898   -2.40006e-01   1.87366e-03 DIIS
   @DF-RHF iter   3:  -455.68262958868070   -8.08232e-02   3.30397e-04 DIIS
   @DF-RHF iter   4:  -455.68710346223605   -4.47387e-03   1.46174e-04 DIIS
   @DF-RHF iter   5:  -455.68806561796993   -9.62156e-04   3.42514e-05 DIIS
   @DF-RHF iter   6:  -455.68813998001906   -7.43620e-05   1.66606e-05 DIIS
   @DF-RHF iter   7:  -455.68815956315655   -1.95831e-05   5.43524e-06 DIIS
   @DF-RHF iter   8:  -455.68816272663423   -3.16348e-06   1.43666e-06 DIIS
   @DF-RHF iter   9:  -455.68816295998306   -2.33349e-07   3.01234e-07 DIIS
   @DF-RHF iter  10:  -455.68816296762867   -7.64561e-09   7.94469e-08 DIIS
   @DF-RHF iter  11:  -455.68816296803641   -4.07738e-10   2.54803e-08 DIIS
   @DF-RHF iter  12:  -455.68816296807989   -4.34852e-11   6.03174e-09 DIIS
   @DF-RHF iter  13:  -455.68816296808257   -2.67164e-12   1.26384e-09 DIIS
   @DF-RHF iter  14:  -455.68816296808296   -3.97904e-13   4.05567e-10 DIIS
   @DF-RHF iter  15:  -455.68816296808268    2.84217e-13   1.52938e-10 DIIS
   @DF-RHF iter  16:  -455.68816296808285   -1.70530e-13   4.06262e-11 DIIS
  Energy and wave function converged.


  ==> Post-Iterations <==

    Orbital Energies [Eh]
    ---------------------

    Doubly Occupied:                                                      

       1A    -20.629651     2A    -20.629318     3A    -20.552966  
       4A    -20.552629     5A    -11.396272     6A    -11.395935  
       7A    -11.251146     8A    -11.250804     9A     -1.476024  
      10A     -1.475690    11A     -1.357651    12A     -1.357315  
      13A     -1.033167    14A     -1.032827    15A     -0.838103  
      16A     -0.837768    17A     -0.703230    18A     -0.702895  
      19A     -0.688634    20A     -0.688297    21A     -0.657920  
      22A     -0.657583    23A     -0.576705    24A     -0.576369  
      25A     -0.569869    26A     -0.569531    27A     -0.561570  
      28A     -0.561225    29A     -0.475506    30A     -0.475170  
      31A     -0.452595    32A     -0.452258  

    Virtual:                                                              

      33A      0.032028    34A      0.032353    35A      0.045449  
      36A      0.045776    37A      0.054888    38A      0.055217  
      39A      0.064510    40A      0.064900    41A      0.098610  
      42A      0.098944    43A      0.117158    44A      0.117482  
      45A      0.117679    46A      0.118019    47A      0.140380  
      48A      0.140718    49A      0.151792    50A      0.152122  
      51A      0.156193    52A      0.156546    53A      0.164399  
      54A      0.164743    55A      0.171160    56A      0.171502  
      57A      0.196136    58A      0.196469    59A      0.209059  
      60A      0.209385    61A      0.233194    62A      0.233528  
      63A      0.234803    64A      0.235143    65A      0.270688  
      66A      0.271032    67A      0.290147    68A      0.290479  
      69A      0.295623    70A      0.295964    71A      0.319666  
      72A      0.319993    73A      0.322620    74A      0.322962  
      75A      0.347105    76A      0.347442    77A      0.370496  
      78A      0.370832    79A      0.378695    80A      0.379029  
      81A      0.393956    82A      0.394293    83A      0.401257  
      84A      0.401598    85A      0.426510    86A      0.426845  
      87A      0.438055    88A      0.438398    89A      0.441826  
      90A      0.442162    91A      0.475385    92A      0.475719  
      93A      0.492182    94A      0.492521    95A      0.524594  
      96A      0.524936    97A      0.537106    98A      0.537449  
      99A      0.553316   100A      0.553652   101A      0.569576  
     102A      0.569925   103A      0.583623   104A      0.583966  
     105A      0.601926   106A      0.602260   107A      0.618064  
     108A      0.618402   109A      0.640141   110A      0.640475  
     111A      0.649128   112A      0.649469   113A      0.666534  
     114A      0.666870   115A      0.684043   116A      0.684387  
     117A      0.697023   118A      0.697360   119A      0.703405  
     120A      0.703743   121A      0.733121   122A      0.733456  
     123A      0.742580   124A      0.742920   125A      0.798292  
     126A      0.798635   127A      0.853413   128A      0.853750  
     129A      0.876669   130A      0.877005   131A      0.912237  
     132A      0.912576   133A      0.949524   134A      0.949864  
     135A      0.954205   136A      0.954543   137A      0.982975  
     138A      0.983311   139A      1.041377   140A      1.041712  
     141A      1.088650   142A      1.088992   143A      1.101670  
     144A      1.102008   145A      1.118203   146A      1.118545  
     147A      1.157349   148A      1.157684   149A      1.171970  
     150A      1.172305   151A      1.176191   152A      1.176526  
     153A      1.235857   154A      1.236190   155A      1.272023  
     156A      1.272359   157A      1.319068   158A      1.319407  
     159A      1.358019   160A      1.358357   161A      1.390281  
     162A      1.390618   163A      1.412284   164A      1.412625  
     165A      1.462632   166A      1.462965   167A      1.467808  
     168A      1.468141   169A      1.545847   170A      1.546189  
     171A      1.634875   172A      1.635215   173A      1.649747  
     174A      1.650083   175A      1.714932   176A      1.715269  
     177A      1.755633   178A      1.755972   179A      1.772717  
     180A      1.773056   181A      1.847876   182A      1.848215  
     183A      1.865333   184A      1.865672   185A      1.883641  
     186A      1.883982   187A      1.966281   188A      1.966616  
     189A      1.979288   190A      1.979626   191A      2.026132  
     192A      2.026472   193A      2.037472   194A      2.037809  
     195A      2.122680   196A      2.123018   197A      2.171878  
     198A      2.172215   199A      2.192968   200A      2.193307  
     201A      2.244604   202A      2.244947   203A      2.253474  
     204A      2.253812   205A      2.272190   206A      2.272527  
     207A      2.312077   208A      2.312416   209A      2.379435  
     210A      2.379773   211A      2.430160   212A      2.430496  
     213A      2.438493   214A      2.438832   215A      2.536135  
     216A      2.536473   217A      2.623418   218A      2.623756  
     219A      2.652140   220A      2.652483   221A      2.783515  
     222A      2.783857   223A      2.833479   224A      2.833817  
     225A      2.885952   226A      2.886290   227A      2.974118  
     228A      2.974454   229A      3.001434   230A      3.001772  
     231A      3.016147   232A      3.016485   233A      3.178765  
     234A      3.179101   235A      3.345958   236A      3.346296  
     237A      3.666531   238A      3.666864   239A      3.690249  
     240A      3.690582   241A      3.736272   242A      3.736606  
     243A      3.759501   244A      3.759838   245A      3.790159  
     246A      3.790494   247A      3.805090   248A      3.805426  
     249A      3.900249   250A      3.900583   251A      4.050203  
     252A      4.050539   253A      4.142178   254A      4.142513  
     255A      4.309779   256A      4.310112  

    Final Occupation by Irrep:
              A 
    DOCC [    32 ]

  @DF-RHF Final Energy:  -455.68816296808285

   => Energetics <=

    Nuclear Repulsion Energy =            270.4131600929442243
    One-Electron Energy =               -1159.3294034339908194
    Two-Electron Energy =                 433.2280803729636887
    Total Energy =                       -455.6881629680828496

Computation Completed


Properties will be evaluated at   0.000000,   0.000000,   0.000000 [a0]

Properties computed using the SCF density matrix

  Nuclear Dipole Moment: [e a0]
     X:  -599.6242      Y:   623.2802      Z:  -921.2599

  Electronic Dipole Moment: [e a0]
     X:   601.2796      Y:  -623.2803      Z:   921.0942

  Dipole Moment: [e a0]
     X:     1.6554      Y:    -0.0002      Z:    -0.1657     Total:     1.6637

  Dipole Moment: [D]
     X:     4.2076      Y:    -0.0004      Z:    -0.4211     Total:     4.2287


*** tstop() called on ds1 at Wed Sep  1 14:12:16 2021
Module time:
	user time   =      14.57 seconds =       0.24 minutes
	system time =       0.40 seconds =       0.01 minutes
	total time  =          3 seconds =       0.05 minutes
Total time:
	user time   =      14.57 seconds =       0.24 minutes
	system time =       0.40 seconds =       0.01 minutes
	total time  =          3 seconds =       0.05 minutes

  //>>>>>>>>>>>>>>>>>>>>>>>>>>>>>>>>>>>//
  //            Monomer A HF           //
  //<<<<<<<<<<<<<<<<<<<<<<<<<<<<<<<<<<<//


*** tstart() called on ds1
*** at Wed Sep  1 14:12:16 2021

   => Loading Basis Set <=

    Name: AUG-CC-PVDZ
    Role: ORBITAL
    Keyword: BASIS
    atoms 1-2, 9-10  entry O          line   254 file /theoryfs2/ds/csargent/miniconda3/envs/cle/share/psi4/basis/aug-cc-pvdz.gbs 
    atoms 3-6, 11-14 entry H          line    40 file /theoryfs2/ds/csargent/miniconda3/envs/cle/share/psi4/basis/aug-cc-pvdz.gbs 
    atoms 7-8, 15-16 entry C          line   182 file /theoryfs2/ds/csargent/miniconda3/envs/cle/share/psi4/basis/aug-cc-pvdz.gbs 


         ---------------------------------------------------------
                                   SCF
               by Justin Turney, Rob Parrish, Andy Simmonett
                          and Daniel G. A. Smith
                              RHF Reference
                        6 Threads,   6675 MiB Core
         ---------------------------------------------------------

  ==> Geometry <==

    Molecular point group: c1
    Full point group: C1

    Geometry (in Bohr), charge = 0, multiplicity = 1:

       Center              X                  Y                   Z               Mass       
    ------------   -----------------  -----------------  -----------------  -----------------
         O           -5.531022370000     2.939402900000     1.977626240000    15.994914619570
         O           -2.407088860000     0.908177340000     0.049059090000    15.994914619570
         H           -0.503048870000     1.375792050000     4.638809080000     1.007825032230
         H            0.000000000000     4.251042850000     3.090722380000     1.007825032230
         H           -2.389482150000     4.019167790000     5.401950410000     1.007825032230
         H           -3.747714110000     0.471479300000    -1.215575120000     1.007825032230
         C           -1.418597820000     2.985005000000     3.844051900000    12.000000000000
         C           -3.322637810000     2.286288140000     1.912214130000    12.000000000000
      Gh(O)         -18.107244220000    16.538102540000   -30.728430730000    15.994914619570
      Gh(O)         -14.983310710000    18.569328100000   -32.656997890000    15.994914619570
      Gh(H)         -13.079270730000    18.101713390000   -28.067247890000     1.007825032230
      Gh(H)         -12.576221850000    15.226462590000   -29.615334590000     1.007825032230
      Gh(H)         -14.965704000000    15.458337650000   -27.304106560000     1.007825032230
      Gh(H)         -16.323935960000    19.006026140000   -33.921632090000     1.007825032230
      Gh(C)         -13.994819680000    16.492500440000   -28.862005080000    12.000000000000
      Gh(C)         -15.898859660000    17.191217300000   -30.793842840000    12.000000000000

  Running in c1 symmetry.

  Rotational constants: A =      0.04057  B =      0.00067  C =      0.00066 [cm^-1]
  Rotational constants: A =   1216.14527  B =     20.00575  C =     19.76521 [MHz]
  Nuclear repulsion =  121.748430210971620

  Charge       = 0
  Multiplicity = 1
  Electrons    = 32
  Nalpha       = 16
  Nbeta        = 16

  ==> Algorithm <==

  SCF Algorithm Type is DF.
  DIIS enabled.
  MOM disabled.
  Fractional occupation disabled.
  Guess Type is SAD.
  Energy threshold   = 1.00e-10
  Density threshold  = 1.00e-10
  Integral threshold = 1.00e-12

  ==> Primary Basis <==

  Basis Set: AUG-CC-PVDZ
    Blend: AUG-CC-PVDZ
    Number of shells: 112
    Number of basis functions: 256
    Number of Cartesian functions: 272
    Spherical Harmonics?: true
    Max angular momentum: 2

   => Loading Basis Set <=

    Name: (AUG-CC-PVDZ AUX)
    Role: JKFIT
    Keyword: DF_BASIS_SCF
    atoms 1-2, 9-10  entry O          line   270 file /theoryfs2/ds/csargent/miniconda3/envs/cle/share/psi4/basis/aug-cc-pvdz-jkfit.gbs 
    atoms 3-6, 11-14 entry H          line    70 file /theoryfs2/ds/csargent/miniconda3/envs/cle/share/psi4/basis/aug-cc-pvdz-jkfit.gbs 
    atoms 7-8, 15-16 entry C          line   154 file /theoryfs2/ds/csargent/miniconda3/envs/cle/share/psi4/basis/aug-cc-pvdz-jkfit.gbs 

  ==> Integral Setup <==

  ==> DiskDFJK: Density-Fitted J/K Matrices <==

    J tasked:                  Yes
    K tasked:                  Yes
    wK tasked:                  No
    OpenMP threads:              6
    Integrals threads:           6
    Memory [MiB]:             5006
    Algorithm:                Core
    Integral Cache:           LOAD
    Schwarz Cutoff:          1E-12
    Fitting Condition:       1E-10

   => Auxiliary Basis Set <=

  Basis Set: (AUG-CC-PVDZ AUX)
    Blend: AUG-CC-PVDZ-JKFIT
    Number of shells: 320
    Number of basis functions: 944
    Number of Cartesian functions: 1088
    Spherical Harmonics?: true
    Max angular momentum: 3

  Minimum eigenvalue in the overlap matrix is 1.0277539959E-04.
  Reciprocal condition number of the overlap matrix is 9.6539104585E-06.
    Using symmetric orthogonalization.

  ==> Pre-Iterations <==

  SCF Guess: Superposition of Atomic Densities via on-the-fly atomic UHF (no occupation information).

   -------------------------
    Irrep   Nso     Nmo    
   -------------------------
     A        256     256 
   -------------------------
    Total     256     256
   -------------------------

  ==> Iterations <==

                           Total Energy        Delta E     RMS |[F,P]|

   @DF-RHF iter SAD:  -226.98992942887378   -2.26990e+02   0.00000e+00 
   @DF-RHF iter   1:  -227.68091168116038   -6.90982e-01   2.28211e-03 DIIS
   @DF-RHF iter   2:  -227.80091445415678   -1.20003e-01   1.32478e-03 DIIS
   @DF-RHF iter   3:  -227.84131987335277   -4.04054e-02   2.33581e-04 DIIS
   @DF-RHF iter   4:  -227.84355633689174   -2.23646e-03   1.03339e-04 DIIS
   @DF-RHF iter   5:  -227.84403723789450   -4.80901e-04   2.42136e-05 DIIS
   @DF-RHF iter   6:  -227.84407440589160   -3.71680e-05   1.17797e-05 DIIS
   @DF-RHF iter   7:  -227.84408419401782   -9.78813e-06   3.84272e-06 DIIS
   @DF-RHF iter   8:  -227.84408577560438   -1.58159e-06   1.01577e-06 DIIS
   @DF-RHF iter   9:  -227.84408589225472   -1.16650e-07   2.12953e-07 DIIS
   @DF-RHF iter  10:  -227.84408589607528   -3.82056e-09   5.61608e-08 DIIS
   @DF-RHF iter  11:  -227.84408589627884   -2.03556e-10   1.80147e-08 DIIS
   @DF-RHF iter  12:  -227.84408589630078   -2.19416e-11   4.26466e-09 DIIS
   @DF-RHF iter  13:  -227.84408589630232   -1.53477e-12   8.93569e-10 DIIS
   @DF-RHF iter  14:  -227.84408589630246   -1.42109e-13   2.86710e-10 DIIS
   @DF-RHF iter  15:  -227.84408589630263   -1.70530e-13   1.08058e-10 DIIS
   @DF-RHF iter  16:  -227.84408589630229    3.41061e-13   2.86100e-11 DIIS
  Energy and wave function converged.


  ==> Post-Iterations <==

    Orbital Energies [Eh]
    ---------------------

    Doubly Occupied:                                                      

       1A    -20.629476     2A    -20.552804     3A    -11.396108  
       4A    -11.250979     5A     -1.475853     6A     -1.357486  
       7A     -1.032999     8A     -0.837930     9A     -0.703065  
      10A     -0.688465    11A     -0.657749    12A     -0.576538  
      13A     -0.569697    14A     -0.561403    15A     -0.475343  
      16A     -0.452434  

    Virtual:                                                              

      17A      0.024931    18A      0.032214    19A      0.045627  
      20A      0.047016    21A      0.055084    22A      0.055686  
      23A      0.056699    24A      0.064645    25A      0.085600  
      26A      0.098769    27A      0.104739    28A      0.112355  
      29A      0.117323    30A      0.117540    31A      0.117857  
      32A      0.140545    33A      0.140574    34A      0.141536  
      35A      0.147040    36A      0.151976    37A      0.156356  
      38A      0.164577    39A      0.171320    40A      0.176535  
      41A      0.196303    42A      0.205783    43A      0.209237  
      44A      0.214764    45A      0.226450    46A      0.233376  
      47A      0.234963    48A      0.244239    49A      0.260452  
      50A      0.264969    51A      0.270849    52A      0.276868  
      53A      0.285616    54A      0.290295    55A      0.295802  
      56A      0.319834    57A      0.322781    58A      0.332446  
      59A      0.336413    60A      0.347275    61A      0.369649  
      62A      0.370652    63A      0.378870    64A      0.394119  
      65A      0.399469    66A      0.401429    67A      0.409949  
      68A      0.426690    69A      0.431328    70A      0.438077  
      71A      0.438218    72A      0.442006    73A      0.460613  
      74A      0.475555    75A      0.490409    76A      0.492357  
      77A      0.497465    78A      0.516711    79A      0.524763  
      80A      0.537262    81A      0.541931    82A      0.543764  
      83A      0.553487    84A      0.559809    85A      0.569740  
      86A      0.583791    87A      0.586975    88A      0.602101  
      89A      0.616499    90A      0.618231    91A      0.636435  
      92A      0.637247    93A      0.640311    94A      0.649301  
      95A      0.666705    96A      0.675309    97A      0.684210  
      98A      0.690135    99A      0.697190   100A      0.701002  
     101A      0.703571   102A      0.728295   103A      0.733289  
     104A      0.742748   105A      0.753837   106A      0.760507  
     107A      0.787326   108A      0.798460   109A      0.815953  
     110A      0.820293   111A      0.848412   112A      0.853581  
     113A      0.876833   114A      0.888389   115A      0.896579  
     116A      0.912403   117A      0.947801   118A      0.949697  
     119A      0.954375   120A      0.958298   121A      0.976091  
     122A      0.983144   123A      1.038149   124A      1.041547  
     125A      1.045380   126A      1.088819   127A      1.101839  
     128A      1.106596   129A      1.118367   130A      1.157520  
     131A      1.162750   132A      1.172141   133A      1.176359  
     134A      1.191055   135A      1.236033   136A      1.260829  
     137A      1.270422   138A      1.272187   139A      1.319230  
     140A      1.329750   141A      1.358181   142A      1.384281  
     143A      1.390440   144A      1.396429   145A      1.412451  
     146A      1.434864   147A      1.458523   148A      1.462795  
     149A      1.467824   150A      1.467976   151A      1.469698  
     152A      1.537722   153A      1.546014   154A      1.569479  
     155A      1.635048   156A      1.649915   157A      1.683884  
     158A      1.715101   159A      1.717663   160A      1.755800  
     161A      1.772884   162A      1.800169   163A      1.848039  
     164A      1.865503   165A      1.883073   166A      1.883811  
     167A      1.937225   168A      1.966454   169A      1.979453  
     170A      2.026298   171A      2.037642   172A      2.070982  
     173A      2.122848   174A      2.172049   175A      2.193137  
     176A      2.244771   177A      2.251121   178A      2.253643  
     179A      2.265155   180A      2.272354   181A      2.274142  
     182A      2.303195   183A      2.312246   184A      2.336812  
     185A      2.339332   186A      2.362336   187A      2.376753  
     188A      2.379604   189A      2.430330   190A      2.438663  
     191A      2.467374   192A      2.506049   193A      2.536303  
     194A      2.586210   195A      2.623585   196A      2.652307  
     197A      2.664909   198A      2.698545   199A      2.754583  
     200A      2.783681   201A      2.786444   202A      2.824452  
     203A      2.833647   204A      2.886121   205A      2.916224  
     206A      2.974291   207A      3.001602   208A      3.016316  
     209A      3.042966   210A      3.178935   211A      3.182697  
     212A      3.278858   213A      3.310970   214A      3.346124  
     215A      3.357154   216A      3.431786   217A      3.486992  
     218A      3.663069   219A      3.666705   220A      3.690423  
     221A      3.736441   222A      3.740370   223A      3.759662  
     224A      3.790324   225A      3.805251   226A      3.900417  
     227A      4.026428   228A      4.050368   229A      4.142340  
     230A      4.153968   231A      4.309953   232A      4.505285  
     233A      4.617211   234A      4.725249   235A      4.926257  
     236A      4.970096   237A      4.978330   238A      5.002027  
     239A      5.017194   240A      5.034061   241A      5.052814  
     242A      5.222351   243A      5.244537   244A      5.615539  
     245A      5.661554   246A      5.791671   247A      5.869405  
     248A      6.053159   249A      6.229227   250A      6.521118  
     251A      6.790618   252A      7.093325   253A     18.346598  
     254A     18.941100   255A     33.525918   256A     33.563912  

    Final Occupation by Irrep:
              A 
    DOCC [    16 ]

  @DF-RHF Final Energy:  -227.84408589630229

   => Energetics <=

    Nuclear Repulsion Energy =            121.7484302109716197
    One-Electron Energy =                -552.7483714422955927
    Two-Electron Energy =                 203.1558553350216982
    Total Energy =                       -227.8440858963022890

Computation Completed


Properties will be evaluated at   0.000000,   0.000000,   0.000000 [a0]

Properties computed using the SCF density matrix

  Nuclear Dipole Moment: [e a0]
     X:   -98.5925      Y:    72.5259      Z:    62.6670

  Electronic Dipole Moment: [e a0]
     X:    99.4206      Y:   -72.8088      Z:   -62.7502

  Dipole Moment: [e a0]
     X:     0.8281      Y:    -0.2829      Z:    -0.0832     Total:     0.8790

  Dipole Moment: [D]
     X:     2.1048      Y:    -0.7191      Z:    -0.2116     Total:     2.2342


*** tstop() called on ds1 at Wed Sep  1 14:12:18 2021
Module time:
	user time   =      10.50 seconds =       0.17 minutes
	system time =       0.19 seconds =       0.00 minutes
	total time  =          2 seconds =       0.03 minutes
Total time:
	user time   =      25.10 seconds =       0.42 minutes
	system time =       0.59 seconds =       0.01 minutes
	total time  =          5 seconds =       0.08 minutes

  //>>>>>>>>>>>>>>>>>>>>>>>>>>>>>>>>>>>//
  //            Monomer B HF           //
  //<<<<<<<<<<<<<<<<<<<<<<<<<<<<<<<<<<<//


*** tstart() called on ds1
*** at Wed Sep  1 14:12:19 2021

   => Loading Basis Set <=

    Name: AUG-CC-PVDZ
    Role: ORBITAL
    Keyword: BASIS
    atoms 1-2, 9-10  entry O          line   254 file /theoryfs2/ds/csargent/miniconda3/envs/cle/share/psi4/basis/aug-cc-pvdz.gbs 
    atoms 3-6, 11-14 entry H          line    40 file /theoryfs2/ds/csargent/miniconda3/envs/cle/share/psi4/basis/aug-cc-pvdz.gbs 
    atoms 7-8, 15-16 entry C          line   182 file /theoryfs2/ds/csargent/miniconda3/envs/cle/share/psi4/basis/aug-cc-pvdz.gbs 


         ---------------------------------------------------------
                                   SCF
               by Justin Turney, Rob Parrish, Andy Simmonett
                          and Daniel G. A. Smith
                              RHF Reference
                        6 Threads,   6675 MiB Core
         ---------------------------------------------------------

  ==> Geometry <==

    Molecular point group: c1
    Full point group: C1

    Geometry (in Bohr), charge = 0, multiplicity = 1:

       Center              X                  Y                   Z               Mass       
    ------------   -----------------  -----------------  -----------------  -----------------
      Gh(O)          -5.531022370000     2.939402900000     1.977626240000    15.994914619570
      Gh(O)          -2.407088860000     0.908177340000     0.049059090000    15.994914619570
      Gh(H)          -0.503048870000     1.375792050000     4.638809080000     1.007825032230
      Gh(H)           0.000000000000     4.251042850000     3.090722380000     1.007825032230
      Gh(H)          -2.389482150000     4.019167790000     5.401950410000     1.007825032230
      Gh(H)          -3.747714110000     0.471479300000    -1.215575120000     1.007825032230
      Gh(C)          -1.418597820000     2.985005000000     3.844051900000    12.000000000000
      Gh(C)          -3.322637810000     2.286288140000     1.912214130000    12.000000000000
         O          -18.107244220000    16.538102540000   -30.728430730000    15.994914619570
         O          -14.983310710000    18.569328100000   -32.656997890000    15.994914619570
         H          -13.079270730000    18.101713390000   -28.067247890000     1.007825032230
         H          -12.576221850000    15.226462590000   -29.615334590000     1.007825032230
         H          -14.965704000000    15.458337650000   -27.304106560000     1.007825032230
         H          -16.323935960000    19.006026140000   -33.921632090000     1.007825032230
         C          -13.994819680000    16.492500440000   -28.862005080000    12.000000000000
         C          -15.898859660000    17.191217300000   -30.793842840000    12.000000000000

  Running in c1 symmetry.

  Rotational constants: A =      0.04057  B =      0.00067  C =      0.00066 [cm^-1]
  Rotational constants: A =   1216.14527  B =     20.00575  C =     19.76521 [MHz]
  Nuclear repulsion =  121.748430238125096

  Charge       = 0
  Multiplicity = 1
  Electrons    = 32
  Nalpha       = 16
  Nbeta        = 16

  ==> Algorithm <==

  SCF Algorithm Type is DF.
  DIIS enabled.
  MOM disabled.
  Fractional occupation disabled.
  Guess Type is SAD.
  Energy threshold   = 1.00e-10
  Density threshold  = 1.00e-10
  Integral threshold = 1.00e-12

  ==> Primary Basis <==

  Basis Set: AUG-CC-PVDZ
    Blend: AUG-CC-PVDZ
    Number of shells: 112
    Number of basis functions: 256
    Number of Cartesian functions: 272
    Spherical Harmonics?: true
    Max angular momentum: 2

   => Loading Basis Set <=

    Name: (AUG-CC-PVDZ AUX)
    Role: JKFIT
    Keyword: DF_BASIS_SCF
    atoms 1-2, 9-10  entry O          line   270 file /theoryfs2/ds/csargent/miniconda3/envs/cle/share/psi4/basis/aug-cc-pvdz-jkfit.gbs 
    atoms 3-6, 11-14 entry H          line    70 file /theoryfs2/ds/csargent/miniconda3/envs/cle/share/psi4/basis/aug-cc-pvdz-jkfit.gbs 
    atoms 7-8, 15-16 entry C          line   154 file /theoryfs2/ds/csargent/miniconda3/envs/cle/share/psi4/basis/aug-cc-pvdz-jkfit.gbs 

  ==> Integral Setup <==

  ==> DiskDFJK: Density-Fitted J/K Matrices <==

    J tasked:                  Yes
    K tasked:                  Yes
    wK tasked:                  No
    OpenMP threads:              6
    Integrals threads:           6
    Memory [MiB]:             5006
    Algorithm:                Core
    Integral Cache:           LOAD
    Schwarz Cutoff:          1E-12
    Fitting Condition:       1E-10

   => Auxiliary Basis Set <=

  Basis Set: (AUG-CC-PVDZ AUX)
    Blend: AUG-CC-PVDZ-JKFIT
    Number of shells: 320
    Number of basis functions: 944
    Number of Cartesian functions: 1088
    Spherical Harmonics?: true
    Max angular momentum: 3

  Minimum eigenvalue in the overlap matrix is 1.0277539959E-04.
  Reciprocal condition number of the overlap matrix is 9.6539104585E-06.
    Using symmetric orthogonalization.

  ==> Pre-Iterations <==

  SCF Guess: Superposition of Atomic Densities via on-the-fly atomic UHF (no occupation information).

   -------------------------
    Irrep   Nso     Nmo    
   -------------------------
     A        256     256 
   -------------------------
    Total     256     256
   -------------------------

  ==> Iterations <==

                           Total Energy        Delta E     RMS |[F,P]|

   @DF-RHF iter SAD:  -226.98992943143952   -2.26990e+02   0.00000e+00 
   @DF-RHF iter   1:  -227.68091167928398   -6.90982e-01   2.28211e-03 DIIS
   @DF-RHF iter   2:  -227.80091445264429   -1.20003e-01   1.32478e-03 DIIS
   @DF-RHF iter   3:  -227.84131987205797   -4.04054e-02   2.33581e-04 DIIS
   @DF-RHF iter   4:  -227.84355633560207   -2.23646e-03   1.03339e-04 DIIS
   @DF-RHF iter   5:  -227.84403723660665   -4.80901e-04   2.42136e-05 DIIS
   @DF-RHF iter   6:  -227.84407440460464   -3.71680e-05   1.17797e-05 DIIS
   @DF-RHF iter   7:  -227.84408419273041   -9.78813e-06   3.84272e-06 DIIS
   @DF-RHF iter   8:  -227.84408577431688   -1.58159e-06   1.01577e-06 DIIS
   @DF-RHF iter   9:  -227.84408589096753   -1.16651e-07   2.12954e-07 DIIS
   @DF-RHF iter  10:  -227.84408589478775   -3.82022e-09   5.61608e-08 DIIS
   @DF-RHF iter  11:  -227.84408589499145   -2.03698e-10   1.80147e-08 DIIS
   @DF-RHF iter  12:  -227.84408589501339   -2.19416e-11   4.26466e-09 DIIS
   @DF-RHF iter  13:  -227.84408589501516   -1.76215e-12   8.93569e-10 DIIS
   @DF-RHF iter  14:  -227.84408589501487    2.84217e-13   2.86711e-10 DIIS
   @DF-RHF iter  15:  -227.84408589501470    1.70530e-13   1.08059e-10 DIIS
   @DF-RHF iter  16:  -227.84408589501476   -5.68434e-14   2.86098e-11 DIIS
  Energy and wave function converged.


  ==> Post-Iterations <==

    Orbital Energies [Eh]
    ---------------------

    Doubly Occupied:                                                      

       1A    -20.629476     2A    -20.552804     3A    -11.396108  
       4A    -11.250979     5A     -1.475853     6A     -1.357486  
       7A     -1.032999     8A     -0.837930     9A     -0.703065  
      10A     -0.688465    11A     -0.657749    12A     -0.576538  
      13A     -0.569697    14A     -0.561403    15A     -0.475343  
      16A     -0.452434  

    Virtual:                                                              

      17A      0.024595    18A      0.032214    19A      0.045627  
      20A      0.046674    21A      0.055083    22A      0.055354  
      23A      0.056352    24A      0.064644    25A      0.085251  
      26A      0.098769    27A      0.104422    28A      0.112018  
      29A      0.117195    30A      0.117323    31A      0.117857  
      32A      0.140220    33A      0.140545    34A      0.141200  
      35A      0.146690    36A      0.151976    37A      0.156356  
      38A      0.164577    39A      0.171320    40A      0.176214  
      41A      0.196303    42A      0.205450    43A      0.209237  
      44A      0.214439    45A      0.226111    46A      0.233376  
      47A      0.234963    48A      0.243899    49A      0.260107  
      50A      0.264646    51A      0.270849    52A      0.276525  
      53A      0.285286    54A      0.290295    55A      0.295802  
      56A      0.319834    57A      0.322781    58A      0.332104  
      59A      0.336069    60A      0.347275    61A      0.369302  
      62A      0.370652    63A      0.378870    64A      0.394119  
      65A      0.399124    66A      0.401429    67A      0.409612  
      68A      0.426690    69A      0.430990    70A      0.437744  
      71A      0.438218    72A      0.442006    73A      0.460287  
      74A      0.475555    75A      0.490072    76A      0.492357  
      77A      0.497130    78A      0.516373    79A      0.524763  
      80A      0.537262    81A      0.541600    82A      0.543418  
      83A      0.553487    84A      0.559470    85A      0.569740  
      86A      0.583791    87A      0.586641    88A      0.602101  
      89A      0.616166    90A      0.618231    91A      0.636098  
      92A      0.636907    93A      0.640311    94A      0.649301  
      95A      0.666705    96A      0.674971    97A      0.684210  
      98A      0.689794    99A      0.697190   100A      0.700658  
     101A      0.703571   102A      0.727956   103A      0.733289  
     104A      0.742748   105A      0.753493   106A      0.760160  
     107A      0.786989   108A      0.798460   109A      0.815612  
     110A      0.819949   111A      0.848074   112A      0.853581  
     113A      0.876833   114A      0.888041   115A      0.896245  
     116A      0.912403   117A      0.947464   118A      0.949697  
     119A      0.954375   120A      0.957958   121A      0.975754  
     122A      0.983144   123A      1.037811   124A      1.041547  
     125A      1.045042   126A      1.088819   127A      1.101839  
     128A      1.106259   129A      1.118367   130A      1.157520  
     131A      1.162414   132A      1.172141   133A      1.176359  
     134A      1.190721   135A      1.236033   136A      1.260494  
     137A      1.270087   138A      1.272187   139A      1.319230  
     140A      1.329415   141A      1.358181   142A      1.383945  
     143A      1.390440   144A      1.396096   145A      1.412451  
     146A      1.434527   147A      1.458189   148A      1.462795  
     149A      1.467490   150A      1.467976   151A      1.469363  
     152A      1.537388   153A      1.546014   154A      1.569143  
     155A      1.635048   156A      1.649915   157A      1.683548  
     158A      1.715101   159A      1.717327   160A      1.755800  
     161A      1.772884   162A      1.799834   163A      1.848039  
     164A      1.865503   165A      1.882729   166A      1.883811  
     167A      1.936885   168A      1.966454   169A      1.979453  
     170A      2.026298   171A      2.037642   172A      2.070636  
     173A      2.122848   174A      2.172049   175A      2.193137  
     176A      2.244771   177A      2.250770   178A      2.253643  
     179A      2.264814   180A      2.272354   181A      2.273811  
     182A      2.302855   183A      2.312246   184A      2.336465  
     185A      2.338992   186A      2.362000   187A      2.376414  
     188A      2.379604   189A      2.430330   190A      2.438663  
     191A      2.467035   192A      2.505718   193A      2.536303  
     194A      2.585869   195A      2.623585   196A      2.652307  
     197A      2.664572   198A      2.698207   199A      2.754243  
     200A      2.783681   201A      2.786100   202A      2.824110  
     203A      2.833647   204A      2.886121   205A      2.915890  
     206A      2.974291   207A      3.001602   208A      3.016316  
     209A      3.042626   210A      3.178935   211A      3.182355  
     212A      3.278517   213A      3.310628   214A      3.346124  
     215A      3.356813   216A      3.431446   217A      3.486648  
     218A      3.662731   219A      3.666705   220A      3.690423  
     221A      3.736441   222A      3.740036   223A      3.759662  
     224A      3.790324   225A      3.805251   226A      3.900417  
     227A      4.026090   228A      4.050368   229A      4.142340  
     230A      4.153639   231A      4.309953   232A      4.504949  
     233A      4.616876   234A      4.724907   235A      4.925921  
     236A      4.969760   237A      4.977998   238A      5.001690  
     239A      5.016861   240A      5.033729   241A      5.052471  
     242A      5.222013   243A      5.244199   244A      5.615209  
     245A      5.661221   246A      5.791338   247A      5.869068  
     248A      6.052823   249A      6.228889   250A      6.520787  
     251A      6.790285   252A      7.092990   253A     18.346257  
     254A     18.940760   255A     33.525581   256A     33.563583  

    Final Occupation by Irrep:
              A 
    DOCC [    16 ]

  @DF-RHF Final Energy:  -227.84408589501476

   => Energetics <=

    Nuclear Repulsion Energy =            121.7484302381250956
    One-Electron Energy =                -552.7483714894399327
    Two-Electron Energy =                 203.1558553563000942
    Total Energy =                       -227.8440858950147572

Computation Completed


Properties will be evaluated at   0.000000,   0.000000,   0.000000 [a0]

Properties computed using the SCF density matrix

  Nuclear Dipole Moment: [e a0]
     X:  -501.0316      Y:   550.7543      Z:  -983.9268

  Electronic Dipole Moment: [e a0]
     X:   501.8597      Y:  -550.4714      Z:   983.8436

  Dipole Moment: [e a0]
     X:     0.8281      Y:     0.2829      Z:    -0.0832     Total:     0.8790

  Dipole Moment: [D]
     X:     2.1048      Y:     0.7191      Z:    -0.2116     Total:     2.2342


*** tstop() called on ds1 at Wed Sep  1 14:12:21 2021
Module time:
	user time   =      10.38 seconds =       0.17 minutes
	system time =       0.17 seconds =       0.00 minutes
	total time  =          2 seconds =       0.03 minutes
Total time:
	user time   =      35.67 seconds =       0.59 minutes
	system time =       0.76 seconds =       0.01 minutes
	total time  =          8 seconds =       0.13 minutes
  Constructing Basis Sets for SAPT...

   => Loading Basis Set <=

    Name: (AUG-CC-PVDZ AUX)
    Role: RIFIT
    Keyword: DF_BASIS_SAPT
    atoms 1-2, 9-10  entry O          line   204 file /theoryfs2/ds/csargent/miniconda3/envs/cle/share/psi4/basis/aug-cc-pvdz-ri.gbs 
    atoms 3-6, 11-14 entry H          line    30 file /theoryfs2/ds/csargent/miniconda3/envs/cle/share/psi4/basis/aug-cc-pvdz-ri.gbs 
    atoms 7-8, 15-16 entry C          line   112 file /theoryfs2/ds/csargent/miniconda3/envs/cle/share/psi4/basis/aug-cc-pvdz-ri.gbs 


  //>>>>>>>>>>>>>>>>>>>>>>>>>>>>>>>>>>>//
  //               SAPT0               //
  //<<<<<<<<<<<<<<<<<<<<<<<<<<<<<<<<<<<//


*** tstart() called on ds1
*** at Wed Sep  1 14:12:21 2021

        SAPT0  
    Ed Hohenstein
     6 June 2009

      Orbital Information
  --------------------------
    NSO        =       256
    NMO        =       256
    NRI        =       760
    NOCC A     =        16
    NOCC B     =        16
    FOCC A     =         4
    FOCC B     =         4
    NVIR A     =       240
    NVIR B     =       240

    Elst10,r            =     0.000008850502 [Eh]
    Exch10              =    -0.000000000000 [Eh]
    Exch10 (S^2)        =    -0.000000000000 [Eh]

    Iter     Energy [mEh]          dE [mEh]         Residual      Time [s]
       1      -0.00000477       0.000004772       0.019529242             1
       2      -0.00000461      -0.000000162       0.006432188             1
       3      -0.00000489       0.000000280       0.002903261             1
       4      -0.00000503       0.000000138       0.000568532             1
       5      -0.00000500      -0.000000026       0.000248888             1
       6      -0.00000500      -0.000000001       0.000097199             1
       7      -0.00000500       0.000000002       0.000022542             1
       8      -0.00000500       0.000000000       0.000005024             1
       9      -0.00000500      -0.000000000       0.000001473             1
      10      -0.00000500       0.000000000       0.000000512             1

    CHF Iterations converged


    Iter     Energy [mEh]          dE [mEh]         Residual      Time [s]
       1      -0.00000570       0.000005704       0.020269269             0
       2      -0.00000572       0.000000019       0.007748014             0
       3      -0.00000618       0.000000453       0.002860065             0
       4      -0.00000630       0.000000125       0.000604011             0
       5      -0.00000628      -0.000000019       0.000359248             1
       6      -0.00000628      -0.000000007       0.000109603             1
       7      -0.00000628       0.000000002       0.000031578             1
       8      -0.00000628       0.000000000       0.000006838             1
       9      -0.00000628      -0.000000000       0.000002732             1
      10      -0.00000628      -0.000000000       0.000001167             1
      11      -0.00000628       0.000000000       0.000000350             1

    CHF Iterations converged

    Ind20,r (A<-B)      =    -0.000000005002 [Eh]
    Ind20,r (B<-A)      =    -0.000000006279 [Eh]
    Ind20,r             =    -0.000000011281 [Eh]
    Exch-Ind20,r (A<-B) =     0.000000000000 [Eh]
    Exch-Ind20,r (B<-A) =     0.000000000000 [Eh]
    Exch-Ind20,r        =     0.000000000000 [Eh]
    Disp20              =    -0.000000195781 [Eh]
    Disp20 (SS)         =    -0.000000097890 [Eh]
    Disp20 (OS)         =    -0.000000097890 [Eh]
    Exch-Disp20         =     0.000000000000 [Eh]
    Exch-Disp20 (SS)    =     0.000000000000 [Eh]
    Exch-Disp20 (OS)    =     0.000000000000 [Eh]

    SAPT Results 
  --------------------------------------------------------------------------------------------------------
    Electrostatics                  0.00885050 [mEh]       0.00555377 [kcal/mol]       0.02323699 [kJ/mol]
      Elst10,r                      0.00885050 [mEh]       0.00555377 [kcal/mol]       0.02323699 [kJ/mol]

    Exchange                       -0.00000000 [mEh]      -0.00000000 [kcal/mol]      -0.00000000 [kJ/mol]
      Exch10                       -0.00000000 [mEh]      -0.00000000 [kcal/mol]      -0.00000000 [kJ/mol]
      Exch10(S^2)                  -0.00000000 [mEh]      -0.00000000 [kcal/mol]      -0.00000000 [kJ/mol]

    Induction                      -0.00002727 [mEh]      -0.00001711 [kcal/mol]      -0.00007159 [kJ/mol]
      Ind20,r                      -0.00001128 [mEh]      -0.00000708 [kcal/mol]      -0.00002962 [kJ/mol]
      Exch-Ind20,r                  0.00000000 [mEh]       0.00000000 [kcal/mol]       0.00000000 [kJ/mol]
      delta HF,r (2)               -0.00001599 [mEh]      -0.00001003 [kcal/mol]      -0.00004197 [kJ/mol]

    Dispersion                     -0.00019578 [mEh]      -0.00012285 [kcal/mol]      -0.00051402 [kJ/mol]
      Disp20                       -0.00019578 [mEh]      -0.00012285 [kcal/mol]      -0.00051402 [kJ/mol]
      Exch-Disp20                   0.00000000 [mEh]       0.00000000 [kcal/mol]       0.00000000 [kJ/mol]
      Disp20 (SS)                  -0.00009789 [mEh]      -0.00006143 [kcal/mol]      -0.00025701 [kJ/mol]
      Disp20 (OS)                  -0.00009789 [mEh]      -0.00006143 [kcal/mol]      -0.00025701 [kJ/mol]
      Exch-Disp20 (SS)              0.00000000 [mEh]       0.00000000 [kcal/mol]       0.00000000 [kJ/mol]
      Exch-Disp20 (OS)              0.00000000 [mEh]       0.00000000 [kcal/mol]       0.00000000 [kJ/mol]

  Total HF                          0.00882323 [mEh]       0.00553666 [kcal/mol]       0.02316540 [kJ/mol]
  Total SAPT0                       0.00862745 [mEh]       0.00541381 [kcal/mol]       0.02265138 [kJ/mol]

  Special recipe for scaled SAPT0 (see Manual):
    Electrostatics sSAPT0           0.00885050 [mEh]       0.00555377 [kcal/mol]       0.02323699 [kJ/mol]
    Exchange sSAPT0                -0.00000000 [mEh]      -0.00000000 [kcal/mol]      -0.00000000 [kJ/mol]
    Induction sSAPT0               -0.00002727 [mEh]      -0.00001711 [kcal/mol]      -0.00007159 [kJ/mol]
    Dispersion sSAPT0              -0.00019578 [mEh]      -0.00012285 [kcal/mol]      -0.00051402 [kJ/mol]
  Total sSAPT0                      0.00862745 [mEh]       0.00541381 [kcal/mol]       0.02265138 [kJ/mol]
  --------------------------------------------------------------------------------------------------------

*** tstop() called on ds1 at Wed Sep  1 14:12:26 2021
Module time:
	user time   =      26.70 seconds =       0.44 minutes
	system time =       2.39 seconds =       0.04 minutes
	total time  =          5 seconds =       0.08 minutes
Total time:
	user time   =      63.14 seconds =       1.05 minutes
	system time =       3.17 seconds =       0.05 minutes
	total time  =         13 seconds =       0.22 minutes


Warning! sapt0 does not have an associated derived wavefunction.The returned wavefunction is the dimer SCF wavefunction.


    Psi4 stopped on: Wednesday, 01 September 2021 02:12PM
    Psi4 wall time for execution: 0:00:13.70

*** Psi4 exiting successfully. Buy a developer a beer!
