
    -----------------------------------------------------------------------
          Psi4: An Open-Source Ab Initio Electronic Structure Package
                               Psi4 1.4rc3 

                         Git: Rev {HEAD} 080dba6 


    D. G. A. Smith, L. A. Burns, A. C. Simmonett, R. M. Parrish,
    M. C. Schieber, R. Galvelis, P. Kraus, H. Kruse, R. Di Remigio,
    A. Alenaizan, A. M. James, S. Lehtola, J. P. Misiewicz, M. Scheurer,
    R. A. Shaw, J. B. Schriber, Y. Xie, Z. L. Glick, D. A. Sirianni,
    J. S. O'Brien, J. M. Waldrop, A. Kumar, E. G. Hohenstein,
    B. P. Pritchard, B. R. Brooks, H. F. Schaefer III, A. Yu. Sokolov,
    K. Patkowski, A. E. DePrince III, U. Bozkaya, R. A. King,
    F. A. Evangelista, J. M. Turney, T. D. Crawford, C. D. Sherrill,
    J. Chem. Phys. 152(18) 184108 (2020). https://doi.org/10.1063/5.0006002

                            Additional Code Authors
    E. T. Seidl, C. L. Janssen, E. F. Valeev, M. L. Leininger,
    J. F. Gonthier, R. M. Richard, H. R. McAlexander, M. Saitow, X. Wang,
    P. Verma, and M. H. Lechner

             Previous Authors, Complete List of Code Contributors,
                       and Citations for Specific Modules
    https://github.com/psi4/psi4/blob/master/codemeta.json
    https://github.com/psi4/psi4/graphs/contributors
    http://psicode.org/psi4manual/master/introduction.html#citing-psifour

    -----------------------------------------------------------------------


    Psi4 started on: Wednesday, 01 September 2021 01:32PM

    Process ID: 18819
    Host:       ds1
    PSIDATADIR: /theoryfs2/ds/csargent/miniconda3/envs/cle/share/psi4
    Memory:     500.0 MiB
    Threads:    6
    
  ==> Input File <==

--------------------------------------------------------------------------
# PSI4 file produced by CrystaLattE

# Generated from:               acetic_acid.xyz
# Psithon input for N-mer:      2mer-0+215
# Number of atoms per monomer:  [8, 8]
# Number of replicas:           2
# COM priority:                 2.838391258465e-05
# Minimum COM separations:      17.348 
# Separation priority:          4.686921008989e-05
# Minimum monomer separations:  14.677 
# Cutoff priority:              1.689857871089e-06
# Nuclear repulsion energy:     274.72359231598307

memory 7 GB

molecule Dimer_0_215 {
  O           -5.53102237       2.93940290       1.97762624 
  O           -2.40708886       0.90817734       0.04905909 
  H           -0.50304887       1.37579205       4.63880908 
  H            0.00000000       4.25104285       3.09072238 
  H           -2.38948215       4.01916779       5.40195041 
  H           -3.74771411       0.47147930      -1.21557512 
  C           -1.41859782       2.98500500       3.84405190 
  C           -3.32263781       2.28628814       1.91221413 
--
  O           -5.53102237     -27.97727240      -8.92439275 
  O           -2.40708886     -30.00849797     -10.85295990 
  H           -0.50304887     -29.54088325      -6.26320991 
  H            0.00000000     -26.66563245      -7.81129661 
  H           -2.38948215     -26.89750751      -5.50006858 
  H           -3.74771411     -30.44519600     -12.11759411 
  C           -1.41859782     -27.93167030      -7.05796709 
  C           -3.32263781     -28.63038716      -8.98980486 
units = au
no_com
no_reorient
}

set {
  e_convergence 10
  d_convergence 10
  scf_type df
  mp2_type df
  cc_type df
  freeze_core true
}

energy('sapt0/aug-cc-pvdz')

--------------------------------------------------------------------------

  Memory set to   6.519 GiB by Python driver.

Scratch directory: /scratch/csargent/psi4.17562.33784/

Scratch directory: /scratch/csargent/psi4.17562.33784/

  //>>>>>>>>>>>>>>>>>>>>>>>>>>>>>>>>>>>//
  //              Dimer HF             //
  //<<<<<<<<<<<<<<<<<<<<<<<<<<<<<<<<<<<//


*** tstart() called on ds1
*** at Wed Sep  1 13:32:58 2021

   => Loading Basis Set <=

    Name: AUG-CC-PVDZ
    Role: ORBITAL
    Keyword: BASIS
    atoms 1-2, 9-10  entry O          line   254 file /theoryfs2/ds/csargent/miniconda3/envs/cle/share/psi4/basis/aug-cc-pvdz.gbs 
    atoms 3-6, 11-14 entry H          line    40 file /theoryfs2/ds/csargent/miniconda3/envs/cle/share/psi4/basis/aug-cc-pvdz.gbs 
    atoms 7-8, 15-16 entry C          line   182 file /theoryfs2/ds/csargent/miniconda3/envs/cle/share/psi4/basis/aug-cc-pvdz.gbs 


         ---------------------------------------------------------
                                   SCF
               by Justin Turney, Rob Parrish, Andy Simmonett
                          and Daniel G. A. Smith
                              RHF Reference
                        6 Threads,   6675 MiB Core
         ---------------------------------------------------------

  ==> Geometry <==

    Molecular point group: c1
    Full point group: C1

    Geometry (in Bohr), charge = 0, multiplicity = 1:

       Center              X                  Y                   Z               Mass       
    ------------   -----------------  -----------------  -----------------  -----------------
         O           -5.531022370000     2.939402900000     1.977626240000    15.994914619570
         O           -2.407088860000     0.908177340000     0.049059090000    15.994914619570
         H           -0.503048870000     1.375792050000     4.638809080000     1.007825032230
         H            0.000000000000     4.251042850000     3.090722380000     1.007825032230
         H           -2.389482150000     4.019167790000     5.401950410000     1.007825032230
         H           -3.747714110000     0.471479300000    -1.215575120000     1.007825032230
         C           -1.418597820000     2.985005000000     3.844051900000    12.000000000000
         C           -3.322637810000     2.286288140000     1.912214130000    12.000000000000
         O           -5.531022370000   -27.977272400000    -8.924392750000    15.994914619570
         O           -2.407088860000   -30.008497970000   -10.852959900000    15.994914619570
         H           -0.503048870000   -29.540883250000    -6.263209910000     1.007825032230
         H            0.000000000000   -26.665632450000    -7.811296610000     1.007825032230
         H           -2.389482150000   -26.897507510000    -5.500068580000     1.007825032230
         H           -3.747714110000   -30.445196000000   -12.117594110000     1.007825032230
         C           -1.418597820000   -27.931670300000    -7.057967090000    12.000000000000
         C           -3.322637810000   -28.630387160000    -8.989804860000    12.000000000000

  Running in c1 symmetry.

  Rotational constants: A =      0.04773  B =      0.00108  C =      0.00107 [cm^-1]
  Rotational constants: A =   1430.86735  B =     32.48747  C =     31.99805 [MHz]
  Nuclear repulsion =  274.723592285676261

  Charge       = 0
  Multiplicity = 1
  Electrons    = 64
  Nalpha       = 32
  Nbeta        = 32

  ==> Algorithm <==

  SCF Algorithm Type is DF.
  DIIS enabled.
  MOM disabled.
  Fractional occupation disabled.
  Guess Type is SAD.
  Energy threshold   = 1.00e-10
  Density threshold  = 1.00e-10
  Integral threshold = 1.00e-12

  ==> Primary Basis <==

  Basis Set: AUG-CC-PVDZ
    Blend: AUG-CC-PVDZ
    Number of shells: 112
    Number of basis functions: 256
    Number of Cartesian functions: 272
    Spherical Harmonics?: true
    Max angular momentum: 2

   => Loading Basis Set <=

    Name: (AUG-CC-PVDZ AUX)
    Role: JKFIT
    Keyword: DF_BASIS_SCF
    atoms 1-2, 9-10  entry O          line   270 file /theoryfs2/ds/csargent/miniconda3/envs/cle/share/psi4/basis/aug-cc-pvdz-jkfit.gbs 
    atoms 3-6, 11-14 entry H          line    70 file /theoryfs2/ds/csargent/miniconda3/envs/cle/share/psi4/basis/aug-cc-pvdz-jkfit.gbs 
    atoms 7-8, 15-16 entry C          line   154 file /theoryfs2/ds/csargent/miniconda3/envs/cle/share/psi4/basis/aug-cc-pvdz-jkfit.gbs 

  ==> Integral Setup <==

  ==> DiskDFJK: Density-Fitted J/K Matrices <==

    J tasked:                  Yes
    K tasked:                  Yes
    wK tasked:                  No
    OpenMP threads:              6
    Integrals threads:           6
    Memory [MiB]:             5006
    Algorithm:                Core
    Integral Cache:           SAVE
    Schwarz Cutoff:          1E-12
    Fitting Condition:       1E-10

   => Auxiliary Basis Set <=

  Basis Set: (AUG-CC-PVDZ AUX)
    Blend: AUG-CC-PVDZ-JKFIT
    Number of shells: 320
    Number of basis functions: 944
    Number of Cartesian functions: 1088
    Spherical Harmonics?: true
    Max angular momentum: 3

  Minimum eigenvalue in the overlap matrix is 1.0277029081E-04.
  Reciprocal condition number of the overlap matrix is 9.6534298344E-06.
    Using symmetric orthogonalization.

  ==> Pre-Iterations <==

  SCF Guess: Superposition of Atomic Densities via on-the-fly atomic UHF (no occupation information).

   -------------------------
    Irrep   Nso     Nmo    
   -------------------------
     A        256     256 
   -------------------------
    Total     256     256
   -------------------------

  ==> Iterations <==

                           Total Energy        Delta E     RMS |[F,P]|

   @DF-RHF iter SAD:  -453.97985885369491   -4.53980e+02   0.00000e+00 
   @DF-RHF iter   1:  -455.36180200225613   -1.38194e+00   3.22741e-03 DIIS
   @DF-RHF iter   2:  -455.60180129358378   -2.39999e-01   1.87371e-03 DIIS
   @DF-RHF iter   3:  -455.68262688660968   -8.08256e-02   3.30413e-04 DIIS
   @DF-RHF iter   4:  -455.68710096713460   -4.47408e-03   1.46178e-04 DIIS
   @DF-RHF iter   5:  -455.68806319701673   -9.62230e-04   3.42519e-05 DIIS
   @DF-RHF iter   6:  -455.68813757019922   -7.43732e-05   1.66628e-05 DIIS
   @DF-RHF iter   7:  -455.68815715971436   -1.95895e-05   5.43667e-06 DIIS
   @DF-RHF iter   8:  -455.68816032466208   -3.16495e-06   1.43674e-06 DIIS
   @DF-RHF iter   9:  -455.68816055803131   -2.33369e-07   3.01051e-07 DIIS
   @DF-RHF iter  10:  -455.68816056566669   -7.63538e-09   7.94007e-08 DIIS
   @DF-RHF iter  11:  -455.68816056607250   -4.05805e-10   2.54840e-08 DIIS
   @DF-RHF iter  12:  -455.68816056611684   -4.43379e-11   6.07338e-09 DIIS
   @DF-RHF iter  13:  -455.68816056612008   -3.24007e-12   1.47293e-09 DIIS
   @DF-RHF iter  14:  -455.68816056611990    1.70530e-13   8.32295e-10 DIIS
   @DF-RHF iter  15:  -455.68816056612036   -4.54747e-13   1.96421e-10 DIIS
   @DF-RHF iter  16:  -455.68816056611968    6.82121e-13   5.90838e-11 DIIS
  Energy and wave function converged.


  ==> Post-Iterations <==

    Orbital Energies [Eh]
    ---------------------

    Doubly Occupied:                                                      

       1A    -20.629781     2A    -20.629243     3A    -20.553119  
       4A    -20.552569     5A    -11.396427     6A    -11.395882  
       7A    -11.251338     8A    -11.250810     9A     -1.476162  
      10A     -1.475620    11A     -1.357798    12A     -1.357250  
      13A     -1.033346    14A     -1.032814    15A     -0.838250  
      16A     -0.837714    17A     -0.703376    18A     -0.702831  
      19A     -0.688794    20A     -0.688257    21A     -0.658075  
      22A     -0.657537    23A     -0.576859    24A     -0.576323  
      25A     -0.570041    26A     -0.569510    27A     -0.561758  
      28A     -0.561225    29A     -0.475652    30A     -0.475102  
      31A     -0.452750    32A     -0.452201  

    Virtual:                                                              

      33A      0.031881    34A      0.032406    35A      0.045307  
      36A      0.045886    37A      0.054688    38A      0.055182  
      39A      0.064269    40A      0.064793    41A      0.098421  
      42A      0.098977    43A      0.117000    44A      0.117533  
      45A      0.117565    46A      0.118072    47A      0.140231  
      48A      0.140778    49A      0.151625    50A      0.152113  
      51A      0.155982    52A      0.156521    53A      0.164201  
      54A      0.164769    55A      0.170999    56A      0.171531  
      57A      0.195965    58A      0.196499    59A      0.208944  
      60A      0.209495    61A      0.233059    62A      0.233576  
      63A      0.234646    64A      0.235174    65A      0.270499  
      66A      0.271038    67A      0.290006    68A      0.290550  
      69A      0.295453    70A      0.295971    71A      0.319532  
      72A      0.320089    73A      0.322478    74A      0.323041  
      75A      0.346926    76A      0.347466    77A      0.370336  
      78A      0.370886    79A      0.378517    80A      0.379048  
      81A      0.393792    82A      0.394326    83A      0.401091  
      84A      0.401635    85A      0.426344    86A      0.426849  
      87A      0.437881    88A      0.438417    89A      0.441637  
      90A      0.442167    91A      0.475246    92A      0.475789  
      93A      0.492004    94A      0.492535    95A      0.524408  
      96A      0.524933    97A      0.536925    98A      0.537469  
      99A      0.553140   100A      0.553671   101A      0.569386  
     102A      0.569922   103A      0.583436   104A      0.583968  
     105A      0.601784   106A      0.602322   107A      0.617897  
     108A      0.618437   109A      0.639976   110A      0.640509  
     111A      0.648952   112A      0.649488   113A      0.666364  
     114A      0.666891   115A      0.683870   116A      0.684415  
     117A      0.696848   118A      0.697392   119A      0.703216  
     120A      0.703745   121A      0.732952   122A      0.733486  
     123A      0.742410   124A      0.742943   125A      0.798102  
     126A      0.798634   127A      0.853254   128A      0.853794  
     129A      0.876521   130A      0.877068   131A      0.912084  
     132A      0.912625   133A      0.949368   134A      0.949906  
     135A      0.954045   136A      0.954590   137A      0.982819  
     138A      0.983358   139A      1.041226   140A      1.041766  
     141A      1.088463   142A      1.089001   143A      1.101488  
     144A      1.102014   145A      1.118027   146A      1.118561  
     147A      1.157210   148A      1.157752   149A      1.171822  
     150A      1.172355   151A      1.176028   152A      1.176567  
     153A      1.235712   154A      1.236235   155A      1.271874  
     156A      1.272424   157A      1.318918   158A      1.319469  
     159A      1.357866   160A      1.358408   161A      1.390117  
     162A      1.390666   163A      1.412109   164A      1.412645  
     165A      1.462490   166A      1.463038   167A      1.467671  
     168A      1.468216   169A      1.545668   170A      1.546200  
     171A      1.634721   172A      1.635259   173A      1.649590  
     174A      1.650131   175A      1.714772   176A      1.715311  
     177A      1.755465   178A      1.756002   179A      1.772532  
     180A      1.773062   181A      1.847716   182A      1.848263  
     183A      1.865157   184A      1.865690   185A      1.883449  
     186A      1.883974   187A      1.966130   188A      1.966663  
     189A      1.979136   190A      1.979683   191A      2.025959  
     192A      2.026495   193A      2.037316   194A      2.037859  
     195A      2.122524   196A      2.123066   197A      2.171714  
     198A      2.172247   199A      2.192800   200A      2.193337  
     201A      2.244421   202A      2.244955   203A      2.253307  
     204A      2.253845   205A      2.272027   206A      2.272570  
     207A      2.311915   208A      2.312454   209A      2.379259  
     210A      2.379790   211A      2.430007   212A      2.430549  
     213A      2.438318   214A      2.438852   215A      2.535963  
     216A      2.536497   217A      2.623256   218A      2.623795  
     219A      2.651951   220A      2.652481   221A      2.783338  
     222A      2.783875   223A      2.833311   224A      2.833845  
     225A      2.885770   226A      2.886304   227A      2.973959  
     228A      2.974496   229A      3.001263   230A      3.001791  
     231A      3.015983   232A      3.016519   233A      3.178614  
     234A      3.179151   235A      3.345805   236A      3.346352  
     237A      3.666398   238A      3.666934   239A      3.690117  
     240A      3.690656   241A      3.736133   242A      3.736674  
     243A      3.759353   244A      3.759904   245A      3.790014  
     246A      3.790562   247A      3.804942   248A      3.805493  
     249A      3.900109   250A      3.900652   251A      4.050058  
     252A      4.050604   253A      4.142032   254A      4.142582  
     255A      4.309645   256A      4.310184  

    Final Occupation by Irrep:
              A 
    DOCC [    32 ]

  @DF-RHF Final Energy:  -455.68816056611968

   => Energetics <=

    Nuclear Repulsion Energy =            274.7235922856762613
    One-Electron Energy =               -1167.9466830651674627
    Two-Electron Energy =                 437.5349302133715810
    Total Energy =                       -455.6881605661196772

Computation Completed


Properties will be evaluated at   0.000000,   0.000000,   0.000000 [a0]

Properties computed using the SCF density matrix

  Nuclear Dipole Moment: [e a0]
     X:  -197.1851      Y:  -844.2818      Z:  -223.5306

  Electronic Dipole Moment: [e a0]
     X:   198.8397      Y:   843.7152      Z:   223.3637

  Dipole Moment: [e a0]
     X:     1.6546      Y:    -0.5666      Z:    -0.1670     Total:     1.7569

  Dipole Moment: [D]
     X:     4.2057      Y:    -1.4402      Z:    -0.4244     Total:     4.4656


*** tstop() called on ds1 at Wed Sep  1 13:33:01 2021
Module time:
	user time   =      14.40 seconds =       0.24 minutes
	system time =       0.46 seconds =       0.01 minutes
	total time  =          3 seconds =       0.05 minutes
Total time:
	user time   =      14.40 seconds =       0.24 minutes
	system time =       0.46 seconds =       0.01 minutes
	total time  =          3 seconds =       0.05 minutes

  //>>>>>>>>>>>>>>>>>>>>>>>>>>>>>>>>>>>//
  //            Monomer A HF           //
  //<<<<<<<<<<<<<<<<<<<<<<<<<<<<<<<<<<<//


*** tstart() called on ds1
*** at Wed Sep  1 13:33:01 2021

   => Loading Basis Set <=

    Name: AUG-CC-PVDZ
    Role: ORBITAL
    Keyword: BASIS
    atoms 1-2, 9-10  entry O          line   254 file /theoryfs2/ds/csargent/miniconda3/envs/cle/share/psi4/basis/aug-cc-pvdz.gbs 
    atoms 3-6, 11-14 entry H          line    40 file /theoryfs2/ds/csargent/miniconda3/envs/cle/share/psi4/basis/aug-cc-pvdz.gbs 
    atoms 7-8, 15-16 entry C          line   182 file /theoryfs2/ds/csargent/miniconda3/envs/cle/share/psi4/basis/aug-cc-pvdz.gbs 


         ---------------------------------------------------------
                                   SCF
               by Justin Turney, Rob Parrish, Andy Simmonett
                          and Daniel G. A. Smith
                              RHF Reference
                        6 Threads,   6675 MiB Core
         ---------------------------------------------------------

  ==> Geometry <==

    Molecular point group: c1
    Full point group: C1

    Geometry (in Bohr), charge = 0, multiplicity = 1:

       Center              X                  Y                   Z               Mass       
    ------------   -----------------  -----------------  -----------------  -----------------
         O           -5.531022370000     2.939402900000     1.977626240000    15.994914619570
         O           -2.407088860000     0.908177340000     0.049059090000    15.994914619570
         H           -0.503048870000     1.375792050000     4.638809080000     1.007825032230
         H            0.000000000000     4.251042850000     3.090722380000     1.007825032230
         H           -2.389482150000     4.019167790000     5.401950410000     1.007825032230
         H           -3.747714110000     0.471479300000    -1.215575120000     1.007825032230
         C           -1.418597820000     2.985005000000     3.844051900000    12.000000000000
         C           -3.322637810000     2.286288140000     1.912214130000    12.000000000000
      Gh(O)          -5.531022370000   -27.977272400000    -8.924392750000    15.994914619570
      Gh(O)          -2.407088860000   -30.008497970000   -10.852959900000    15.994914619570
      Gh(H)          -0.503048870000   -29.540883250000    -6.263209910000     1.007825032230
      Gh(H)           0.000000000000   -26.665632450000    -7.811296610000     1.007825032230
      Gh(H)          -2.389482150000   -26.897507510000    -5.500068580000     1.007825032230
      Gh(H)          -3.747714110000   -30.445196000000   -12.117594110000     1.007825032230
      Gh(C)          -1.418597820000   -27.931670300000    -7.057967090000    12.000000000000
      Gh(C)          -3.322637810000   -28.630387160000    -8.989804860000    12.000000000000

  Running in c1 symmetry.

  Rotational constants: A =      0.04773  B =      0.00108  C =      0.00107 [cm^-1]
  Rotational constants: A =   1430.86735  B =     32.48747  C =     31.99805 [MHz]
  Nuclear repulsion =  121.748430210971620

  Charge       = 0
  Multiplicity = 1
  Electrons    = 32
  Nalpha       = 16
  Nbeta        = 16

  ==> Algorithm <==

  SCF Algorithm Type is DF.
  DIIS enabled.
  MOM disabled.
  Fractional occupation disabled.
  Guess Type is SAD.
  Energy threshold   = 1.00e-10
  Density threshold  = 1.00e-10
  Integral threshold = 1.00e-12

  ==> Primary Basis <==

  Basis Set: AUG-CC-PVDZ
    Blend: AUG-CC-PVDZ
    Number of shells: 112
    Number of basis functions: 256
    Number of Cartesian functions: 272
    Spherical Harmonics?: true
    Max angular momentum: 2

   => Loading Basis Set <=

    Name: (AUG-CC-PVDZ AUX)
    Role: JKFIT
    Keyword: DF_BASIS_SCF
    atoms 1-2, 9-10  entry O          line   270 file /theoryfs2/ds/csargent/miniconda3/envs/cle/share/psi4/basis/aug-cc-pvdz-jkfit.gbs 
    atoms 3-6, 11-14 entry H          line    70 file /theoryfs2/ds/csargent/miniconda3/envs/cle/share/psi4/basis/aug-cc-pvdz-jkfit.gbs 
    atoms 7-8, 15-16 entry C          line   154 file /theoryfs2/ds/csargent/miniconda3/envs/cle/share/psi4/basis/aug-cc-pvdz-jkfit.gbs 

  ==> Integral Setup <==

  ==> DiskDFJK: Density-Fitted J/K Matrices <==

    J tasked:                  Yes
    K tasked:                  Yes
    wK tasked:                  No
    OpenMP threads:              6
    Integrals threads:           6
    Memory [MiB]:             5006
    Algorithm:                Core
    Integral Cache:           LOAD
    Schwarz Cutoff:          1E-12
    Fitting Condition:       1E-10

   => Auxiliary Basis Set <=

  Basis Set: (AUG-CC-PVDZ AUX)
    Blend: AUG-CC-PVDZ-JKFIT
    Number of shells: 320
    Number of basis functions: 944
    Number of Cartesian functions: 1088
    Spherical Harmonics?: true
    Max angular momentum: 3

  Minimum eigenvalue in the overlap matrix is 1.0277029081E-04.
  Reciprocal condition number of the overlap matrix is 9.6534298344E-06.
    Using symmetric orthogonalization.

  ==> Pre-Iterations <==

  SCF Guess: Superposition of Atomic Densities via on-the-fly atomic UHF (no occupation information).

   -------------------------
    Irrep   Nso     Nmo    
   -------------------------
     A        256     256 
   -------------------------
    Total     256     256
   -------------------------

  ==> Iterations <==

                           Total Energy        Delta E     RMS |[F,P]|

   @DF-RHF iter SAD:  -226.98992942925457   -2.26990e+02   0.00000e+00 
   @DF-RHF iter   1:  -227.68091168006998   -6.90982e-01   2.28211e-03 DIIS
   @DF-RHF iter   2:  -227.80091445324322   -1.20003e-01   1.32478e-03 DIIS
   @DF-RHF iter   3:  -227.84131987255947   -4.04054e-02   2.33581e-04 DIIS
   @DF-RHF iter   4:  -227.84355633609115   -2.23646e-03   1.03339e-04 DIIS
   @DF-RHF iter   5:  -227.84403723709360   -4.80901e-04   2.42136e-05 DIIS
   @DF-RHF iter   6:  -227.84407440509096   -3.71680e-05   1.17797e-05 DIIS
   @DF-RHF iter   7:  -227.84408419321710   -9.78813e-06   3.84272e-06 DIIS
   @DF-RHF iter   8:  -227.84408577480346   -1.58159e-06   1.01577e-06 DIIS
   @DF-RHF iter   9:  -227.84408589145380   -1.16650e-07   2.12954e-07 DIIS
   @DF-RHF iter  10:  -227.84408589527419   -3.82039e-09   5.61608e-08 DIIS
   @DF-RHF iter  11:  -227.84408589547826   -2.04068e-10   1.80147e-08 DIIS
   @DF-RHF iter  12:  -227.84408589549997   -2.17142e-11   4.26466e-09 DIIS
   @DF-RHF iter  13:  -227.84408589550142   -1.44951e-12   8.93569e-10 DIIS
   @DF-RHF iter  14:  -227.84408589550154   -1.13687e-13   2.86710e-10 DIIS
   @DF-RHF iter  15:  -227.84408589550171   -1.70530e-13   1.08059e-10 DIIS
   @DF-RHF iter  16:  -227.84408589550179   -8.52651e-14   2.86096e-11 DIIS
  Energy and wave function converged.


  ==> Post-Iterations <==

    Orbital Energies [Eh]
    ---------------------

    Doubly Occupied:                                                      

       1A    -20.629476     2A    -20.552804     3A    -11.396108  
       4A    -11.250979     5A     -1.475853     6A     -1.357486  
       7A     -1.032999     8A     -0.837930     9A     -0.703065  
      10A     -0.688465    11A     -0.657749    12A     -0.576538  
      13A     -0.569697    14A     -0.561403    15A     -0.475343  
      16A     -0.452434  

    Virtual:                                                              

      17A      0.024424    18A      0.032214    19A      0.045626  
      20A      0.046535    21A      0.055083    22A      0.055167  
      23A      0.056150    24A      0.064645    25A      0.085096  
      26A      0.098769    27A      0.104269    28A      0.111851  
      29A      0.116970    30A      0.117323    31A      0.117857  
      32A      0.140037    33A      0.140547    34A      0.141029  
      35A      0.146488    36A      0.151976    37A      0.156356  
      38A      0.164577    39A      0.171320    40A      0.176055  
      41A      0.196303    42A      0.205325    43A      0.209237  
      44A      0.214305    45A      0.225973    46A      0.233376  
      47A      0.234963    48A      0.243749    49A      0.259968  
      50A      0.264501    51A      0.270849    52A      0.276374  
      53A      0.285143    54A      0.290295    55A      0.295802  
      56A      0.319834    57A      0.322781    58A      0.331906  
      59A      0.335886    60A      0.347275    61A      0.369106  
      62A      0.370652    63A      0.378870    64A      0.394119  
      65A      0.398918    66A      0.401429    67A      0.409417  
      68A      0.426690    69A      0.430812    70A      0.437553  
      71A      0.438218    72A      0.442006    73A      0.460170  
      74A      0.475555    75A      0.489924    76A      0.492357  
      77A      0.496978    78A      0.516221    79A      0.524763  
      80A      0.537262    81A      0.541477    82A      0.543231  
      83A      0.553487    84A      0.559294    85A      0.569740  
      86A      0.583791    87A      0.586457    88A      0.602101  
      89A      0.616020    90A      0.618231    91A      0.635929  
      92A      0.636746    93A      0.640311    94A      0.649301  
      95A      0.666705    96A      0.674810    97A      0.684210  
      98A      0.689610    99A      0.697190   100A      0.700472  
     101A      0.703571   102A      0.727757   103A      0.733289  
     104A      0.742748   105A      0.753322   106A      0.759965  
     107A      0.786813   108A      0.798460   109A      0.815416  
     110A      0.819755   111A      0.847892   112A      0.853581  
     113A      0.876833   114A      0.887848   115A      0.896079  
     116A      0.912403   117A      0.947289   118A      0.949697  
     119A      0.954375   120A      0.957788   121A      0.975590  
     122A      0.983144   123A      1.037655   124A      1.041547  
     125A      1.044895   126A      1.088819   127A      1.101839  
     128A      1.106098   129A      1.118367   130A      1.157520  
     131A      1.162273   132A      1.172141   133A      1.176359  
     134A      1.190583   135A      1.236033   136A      1.260363  
     137A      1.269954   138A      1.272187   139A      1.319230  
     140A      1.329276   141A      1.358181   142A      1.383808  
     143A      1.390440   144A      1.395964   145A      1.412451  
     146A      1.434380   147A      1.458066   148A      1.462795  
     149A      1.467355   150A      1.467976   151A      1.469230  
     152A      1.537247   153A      1.546014   154A      1.569005  
     155A      1.635048   156A      1.649915   157A      1.683405  
     158A      1.715101   159A      1.717180   160A      1.755800  
     161A      1.772884   162A      1.799696   163A      1.848039  
     164A      1.865503   165A      1.882518   166A      1.883811  
     167A      1.936693   168A      1.966454   169A      1.979453  
     170A      2.026298   171A      2.037642   172A      2.070449  
     173A      2.122848   174A      2.172049   175A      2.193137  
     176A      2.244771   177A      2.250564   178A      2.253643  
     179A      2.264617   180A      2.272354   181A      2.273669  
     182A      2.302662   183A      2.312246   184A      2.336253  
     185A      2.338797   186A      2.361822   187A      2.376254  
     188A      2.379604   189A      2.430330   190A      2.438663  
     191A      2.466885   192A      2.505591   193A      2.536303  
     194A      2.585705   195A      2.623585   196A      2.652307  
     197A      2.664418   198A      2.698021   199A      2.754053  
     200A      2.783681   201A      2.785915   202A      2.823915  
     203A      2.833647   204A      2.886121   205A      2.915734  
     206A      2.974291   207A      3.001602   208A      3.016316  
     209A      3.042453   210A      3.178935   211A      3.182173  
     212A      3.278330   213A      3.310449   214A      3.346124  
     215A      3.356631   216A      3.431280   217A      3.486456  
     218A      3.662564   219A      3.666705   220A      3.690423  
     221A      3.736441   222A      3.739904   223A      3.759662  
     224A      3.790324   225A      3.805251   226A      3.900417  
     227A      4.025935   228A      4.050368   229A      4.142340  
     230A      4.153523   231A      4.309953   232A      4.504807  
     233A      4.616742   234A      4.724729   235A      4.925785  
     236A      4.969618   237A      4.977873   238A      5.001550  
     239A      5.016727   240A      5.033600   241A      5.052281  
     242A      5.221852   243A      5.244024   244A      5.615091  
     245A      5.661093   246A      5.791212   247A      5.868924  
     248A      6.052685   249A      6.228745   250A      6.520666  
     251A      6.790159   252A      7.092855   253A     18.346078  
     254A     18.940587   255A     33.525437   256A     33.563466  

    Final Occupation by Irrep:
              A 
    DOCC [    16 ]

  @DF-RHF Final Energy:  -227.84408589550179

   => Energetics <=

    Nuclear Repulsion Energy =            121.7484302109716197
    One-Electron Energy =                -552.7483714358656925
    Two-Electron Energy =                 203.1558553293922955
    Total Energy =                       -227.8440858955017916

Computation Completed


Properties will be evaluated at   0.000000,   0.000000,   0.000000 [a0]

Properties computed using the SCF density matrix

  Nuclear Dipole Moment: [e a0]
     X:   -98.5925      Y:    72.5259      Z:    62.6670

  Electronic Dipole Moment: [e a0]
     X:    99.4206      Y:   -72.8088      Z:   -62.7502

  Dipole Moment: [e a0]
     X:     0.8281      Y:    -0.2829      Z:    -0.0832     Total:     0.8790

  Dipole Moment: [D]
     X:     2.1048      Y:    -0.7191      Z:    -0.2116     Total:     2.2342


*** tstop() called on ds1 at Wed Sep  1 13:33:03 2021
Module time:
	user time   =      10.23 seconds =       0.17 minutes
	system time =       0.20 seconds =       0.00 minutes
	total time  =          2 seconds =       0.03 minutes
Total time:
	user time   =      24.94 seconds =       0.42 minutes
	system time =       0.66 seconds =       0.01 minutes
	total time  =          5 seconds =       0.08 minutes

  //>>>>>>>>>>>>>>>>>>>>>>>>>>>>>>>>>>>//
  //            Monomer B HF           //
  //<<<<<<<<<<<<<<<<<<<<<<<<<<<<<<<<<<<//


*** tstart() called on ds1
*** at Wed Sep  1 13:33:03 2021

   => Loading Basis Set <=

    Name: AUG-CC-PVDZ
    Role: ORBITAL
    Keyword: BASIS
    atoms 1-2, 9-10  entry O          line   254 file /theoryfs2/ds/csargent/miniconda3/envs/cle/share/psi4/basis/aug-cc-pvdz.gbs 
    atoms 3-6, 11-14 entry H          line    40 file /theoryfs2/ds/csargent/miniconda3/envs/cle/share/psi4/basis/aug-cc-pvdz.gbs 
    atoms 7-8, 15-16 entry C          line   182 file /theoryfs2/ds/csargent/miniconda3/envs/cle/share/psi4/basis/aug-cc-pvdz.gbs 


         ---------------------------------------------------------
                                   SCF
               by Justin Turney, Rob Parrish, Andy Simmonett
                          and Daniel G. A. Smith
                              RHF Reference
                        6 Threads,   6675 MiB Core
         ---------------------------------------------------------

  ==> Geometry <==

    Molecular point group: c1
    Full point group: C1

    Geometry (in Bohr), charge = 0, multiplicity = 1:

       Center              X                  Y                   Z               Mass       
    ------------   -----------------  -----------------  -----------------  -----------------
      Gh(O)          -5.531022370000     2.939402900000     1.977626240000    15.994914619570
      Gh(O)          -2.407088860000     0.908177340000     0.049059090000    15.994914619570
      Gh(H)          -0.503048870000     1.375792050000     4.638809080000     1.007825032230
      Gh(H)           0.000000000000     4.251042850000     3.090722380000     1.007825032230
      Gh(H)          -2.389482150000     4.019167790000     5.401950410000     1.007825032230
      Gh(H)          -3.747714110000     0.471479300000    -1.215575120000     1.007825032230
      Gh(C)          -1.418597820000     2.985005000000     3.844051900000    12.000000000000
      Gh(C)          -3.322637810000     2.286288140000     1.912214130000    12.000000000000
         O           -5.531022370000   -27.977272400000    -8.924392750000    15.994914619570
         O           -2.407088860000   -30.008497970000   -10.852959900000    15.994914619570
         H           -0.503048870000   -29.540883250000    -6.263209910000     1.007825032230
         H            0.000000000000   -26.665632450000    -7.811296610000     1.007825032230
         H           -2.389482150000   -26.897507510000    -5.500068580000     1.007825032230
         H           -3.747714110000   -30.445196000000   -12.117594110000     1.007825032230
         C           -1.418597820000   -27.931670300000    -7.057967090000    12.000000000000
         C           -3.322637810000   -28.630387160000    -8.989804860000    12.000000000000

  Running in c1 symmetry.

  Rotational constants: A =      0.04773  B =      0.00108  C =      0.00107 [cm^-1]
  Rotational constants: A =   1430.86735  B =     32.48747  C =     31.99805 [MHz]
  Nuclear repulsion =  121.748430141006423

  Charge       = 0
  Multiplicity = 1
  Electrons    = 32
  Nalpha       = 16
  Nbeta        = 16

  ==> Algorithm <==

  SCF Algorithm Type is DF.
  DIIS enabled.
  MOM disabled.
  Fractional occupation disabled.
  Guess Type is SAD.
  Energy threshold   = 1.00e-10
  Density threshold  = 1.00e-10
  Integral threshold = 1.00e-12

  ==> Primary Basis <==

  Basis Set: AUG-CC-PVDZ
    Blend: AUG-CC-PVDZ
    Number of shells: 112
    Number of basis functions: 256
    Number of Cartesian functions: 272
    Spherical Harmonics?: true
    Max angular momentum: 2

   => Loading Basis Set <=

    Name: (AUG-CC-PVDZ AUX)
    Role: JKFIT
    Keyword: DF_BASIS_SCF
    atoms 1-2, 9-10  entry O          line   270 file /theoryfs2/ds/csargent/miniconda3/envs/cle/share/psi4/basis/aug-cc-pvdz-jkfit.gbs 
    atoms 3-6, 11-14 entry H          line    70 file /theoryfs2/ds/csargent/miniconda3/envs/cle/share/psi4/basis/aug-cc-pvdz-jkfit.gbs 
    atoms 7-8, 15-16 entry C          line   154 file /theoryfs2/ds/csargent/miniconda3/envs/cle/share/psi4/basis/aug-cc-pvdz-jkfit.gbs 

  ==> Integral Setup <==

  ==> DiskDFJK: Density-Fitted J/K Matrices <==

    J tasked:                  Yes
    K tasked:                  Yes
    wK tasked:                  No
    OpenMP threads:              6
    Integrals threads:           6
    Memory [MiB]:             5006
    Algorithm:                Core
    Integral Cache:           LOAD
    Schwarz Cutoff:          1E-12
    Fitting Condition:       1E-10

   => Auxiliary Basis Set <=

  Basis Set: (AUG-CC-PVDZ AUX)
    Blend: AUG-CC-PVDZ-JKFIT
    Number of shells: 320
    Number of basis functions: 944
    Number of Cartesian functions: 1088
    Spherical Harmonics?: true
    Max angular momentum: 3

  Minimum eigenvalue in the overlap matrix is 1.0277029081E-04.
  Reciprocal condition number of the overlap matrix is 9.6534298344E-06.
    Using symmetric orthogonalization.

  ==> Pre-Iterations <==

  SCF Guess: Superposition of Atomic Densities via on-the-fly atomic UHF (no occupation information).

   -------------------------
    Irrep   Nso     Nmo    
   -------------------------
     A        256     256 
   -------------------------
    Total     256     256
   -------------------------

  ==> Iterations <==

                           Total Energy        Delta E     RMS |[F,P]|

   @DF-RHF iter SAD:  -226.98992942369011   -2.26990e+02   0.00000e+00 
   @DF-RHF iter   1:  -227.68091167773602   -6.90982e-01   2.28211e-03 DIIS
   @DF-RHF iter   2:  -227.80091445102232   -1.20003e-01   1.32478e-03 DIIS
   @DF-RHF iter   3:  -227.84131987047073   -4.04054e-02   2.33581e-04 DIIS
   @DF-RHF iter   4:  -227.84355633398442   -2.23646e-03   1.03339e-04 DIIS
   @DF-RHF iter   5:  -227.84403723498241   -4.80901e-04   2.42136e-05 DIIS
   @DF-RHF iter   6:  -227.84407440297906   -3.71680e-05   1.17797e-05 DIIS
   @DF-RHF iter   7:  -227.84408419110449   -9.78813e-06   3.84272e-06 DIIS
   @DF-RHF iter   8:  -227.84408577269124   -1.58159e-06   1.01577e-06 DIIS
   @DF-RHF iter   9:  -227.84408588934170   -1.16650e-07   2.12953e-07 DIIS
   @DF-RHF iter  10:  -227.84408589316192   -3.82022e-09   5.61608e-08 DIIS
   @DF-RHF iter  11:  -227.84408589336545   -2.03528e-10   1.80147e-08 DIIS
   @DF-RHF iter  12:  -227.84408589338778   -2.23395e-11   4.26466e-09 DIIS
   @DF-RHF iter  13:  -227.84408589338926   -1.47793e-12   8.93569e-10 DIIS
   @DF-RHF iter  14:  -227.84408589338955   -2.84217e-13   2.86711e-10 DIIS
   @DF-RHF iter  15:  -227.84408589338932    2.27374e-13   1.08058e-10 DIIS
   @DF-RHF iter  16:  -227.84408589338940   -8.52651e-14   2.86097e-11 DIIS
  Energy and wave function converged.


  ==> Post-Iterations <==

    Orbital Energies [Eh]
    ---------------------

    Doubly Occupied:                                                      

       1A    -20.629476     2A    -20.552804     3A    -11.396108  
       4A    -11.250979     5A     -1.475853     6A     -1.357486  
       7A     -1.032999     8A     -0.837930     9A     -0.703065  
      10A     -0.688465    11A     -0.657749    12A     -0.576538  
      13A     -0.569697    14A     -0.561403    15A     -0.475343  
      16A     -0.452434  

    Virtual:                                                              

      17A      0.024953    18A      0.032214    19A      0.045626  
      20A      0.047120    21A      0.055083    22A      0.055652  
      23A      0.056672    24A      0.064644    25A      0.085670  
      26A      0.098769    27A      0.104791    28A      0.112408  
      29A      0.117323    30A      0.117482    31A      0.117857  
      32A      0.140541    33A      0.140606    34A      0.141542  
      35A      0.147020    36A      0.151976    37A      0.156356  
      38A      0.164577    39A      0.171320    40A      0.176598  
      41A      0.196303    42A      0.205845    43A      0.209237  
      44A      0.214827    45A      0.226523    46A      0.233376  
      47A      0.234963    48A      0.244308    49A      0.260526  
      50A      0.265042    51A      0.270849    52A      0.276951  
      53A      0.285658    54A      0.290295    55A      0.295802  
      56A      0.319834    57A      0.322781    58A      0.332435  
      59A      0.336386    60A      0.347275    61A      0.369637  
      62A      0.370652    63A      0.378870    64A      0.394119  
      65A      0.399451    66A      0.401429    67A      0.409936  
      68A      0.426690    69A      0.431346    70A      0.438084  
      71A      0.438218    72A      0.442006    73A      0.460716  
      74A      0.475555    75A      0.490463    76A      0.492357  
      77A      0.497514    78A      0.516764    79A      0.524763  
      80A      0.537262    81A      0.542015    82A      0.543758  
      83A      0.553487    84A      0.559833    85A      0.569740  
      86A      0.583791    87A      0.586975    88A      0.602101  
      89A      0.616554    90A      0.618231    91A      0.636466  
      92A      0.637282    93A      0.640311    94A      0.649301  
      95A      0.666705    96A      0.675348    97A      0.684210  
      98A      0.690144    99A      0.697190   100A      0.701008  
     101A      0.703571   102A      0.728279   103A      0.733289  
     104A      0.742748   105A      0.753863   106A      0.760491  
     107A      0.787336   108A      0.798460   109A      0.815938  
     110A      0.820281   111A      0.848409   112A      0.853581  
     113A      0.876833   114A      0.888387   115A      0.896614  
     116A      0.912403   117A      0.947827   118A      0.949697  
     119A      0.954375   120A      0.958322   121A      0.976126  
     122A      0.983144   123A      1.038199   124A      1.041547  
     125A      1.045435   126A      1.088819   127A      1.101839  
     128A      1.106640   129A      1.118367   130A      1.157520  
     131A      1.162818   132A      1.172141   133A      1.176359  
     134A      1.191119   135A      1.236033   136A      1.260913  
     137A      1.270507   138A      1.272187   139A      1.319230  
     140A      1.329817   141A      1.358181   142A      1.384365  
     143A      1.390440   144A      1.396508   145A      1.412451  
     146A      1.434937   147A      1.458610   148A      1.462795  
     149A      1.467900   150A      1.467976   151A      1.469771  
     152A      1.537794   153A      1.546014   154A      1.569552  
     155A      1.635048   156A      1.649915   157A      1.683943  
     158A      1.715101   159A      1.717729   160A      1.755800  
     161A      1.772884   162A      1.800241   163A      1.848039  
     164A      1.865503   165A      1.883036   166A      1.883811  
     167A      1.937215   168A      1.966454   169A      1.979453  
     170A      2.026298   171A      2.037642   172A      2.070979  
     173A      2.122848   174A      2.172049   175A      2.193137  
     176A      2.244771   177A      2.251099   178A      2.253643  
     179A      2.265130   180A      2.272354   181A      2.274213  
     182A      2.303183   183A      2.312246   184A      2.336784  
     185A      2.339308   186A      2.362343   187A      2.376792  
     188A      2.379604   189A      2.430330   190A      2.438663  
     191A      2.467428   192A      2.506135   193A      2.536303  
     194A      2.586245   195A      2.623585   196A      2.652307  
     197A      2.664951   198A      2.698542   199A      2.754575  
     200A      2.783681   201A      2.786442   202A      2.824448  
     203A      2.833647   204A      2.886121   205A      2.916266  
     206A      2.974291   207A      3.001602   208A      3.016316  
     209A      3.042984   210A      3.178935   211A      3.182705  
     212A      3.278853   213A      3.310981   214A      3.346124  
     215A      3.357159   216A      3.431819   217A      3.486983  
     218A      3.663101   219A      3.666705   220A      3.690423  
     221A      3.736441   222A      3.740441   223A      3.759662  
     224A      3.790324   225A      3.805251   226A      3.900417  
     227A      4.026488   228A      4.050368   229A      4.142340  
     230A      4.154060   231A      4.309953   232A      4.505363  
     233A      4.617283   234A      4.725264   235A      4.926340  
     236A      4.970171   237A      4.978409   238A      5.002113  
     239A      5.017267   240A      5.034135   241A      5.052812  
     242A      5.222395   243A      5.244555   244A      5.615619  
     245A      5.661632   246A      5.791756   247A      5.869481  
     248A      6.053239   249A      6.229308   250A      6.521199  
     251A      6.790701   252A      7.093406   253A     18.346609  
     254A     18.941121   255A     33.526004   256A     33.563995  

    Final Occupation by Irrep:
              A 
    DOCC [    16 ]

  @DF-RHF Final Energy:  -227.84408589338940

   => Energetics <=

    Nuclear Repulsion Energy =            121.7484301410064234
    One-Electron Energy =                -552.7483712891755658
    Two-Electron Energy =                 203.1558552547797092
    Total Energy =                       -227.8440858933894049

Computation Completed


Properties will be evaluated at   0.000000,   0.000000,   0.000000 [a0]

Properties computed using the SCF density matrix

  Nuclear Dipole Moment: [e a0]
     X:   -98.5925      Y:  -916.8077      Z:  -286.1976

  Electronic Dipole Moment: [e a0]
     X:    99.4206      Y:   916.5248      Z:   286.1144

  Dipole Moment: [e a0]
     X:     0.8281      Y:    -0.2829      Z:    -0.0832     Total:     0.8790

  Dipole Moment: [D]
     X:     2.1048      Y:    -0.7191      Z:    -0.2116     Total:     2.2342


*** tstop() called on ds1 at Wed Sep  1 13:33:06 2021
Module time:
	user time   =      10.43 seconds =       0.17 minutes
	system time =       0.17 seconds =       0.00 minutes
	total time  =          3 seconds =       0.05 minutes
Total time:
	user time   =      35.39 seconds =       0.59 minutes
	system time =       0.83 seconds =       0.01 minutes
	total time  =          8 seconds =       0.13 minutes
  Constructing Basis Sets for SAPT...

   => Loading Basis Set <=

    Name: (AUG-CC-PVDZ AUX)
    Role: RIFIT
    Keyword: DF_BASIS_SAPT
    atoms 1-2, 9-10  entry O          line   204 file /theoryfs2/ds/csargent/miniconda3/envs/cle/share/psi4/basis/aug-cc-pvdz-ri.gbs 
    atoms 3-6, 11-14 entry H          line    30 file /theoryfs2/ds/csargent/miniconda3/envs/cle/share/psi4/basis/aug-cc-pvdz-ri.gbs 
    atoms 7-8, 15-16 entry C          line   112 file /theoryfs2/ds/csargent/miniconda3/envs/cle/share/psi4/basis/aug-cc-pvdz-ri.gbs 


  //>>>>>>>>>>>>>>>>>>>>>>>>>>>>>>>>>>>//
  //               SAPT0               //
  //<<<<<<<<<<<<<<<<<<<<<<<<<<<<<<<<<<<//


*** tstart() called on ds1
*** at Wed Sep  1 13:33:06 2021

        SAPT0  
    Ed Hohenstein
     6 June 2009

      Orbital Information
  --------------------------
    NSO        =       256
    NMO        =       256
    NRI        =       760
    NOCC A     =        16
    NOCC B     =        16
    FOCC A     =         4
    FOCC B     =         4
    NVIR A     =       240
    NVIR B     =       240

    Elst10,r            =     0.000011274483 [Eh]
    Exch10              =    -0.000000000000 [Eh]
    Exch10 (S^2)        =    -0.000000000000 [Eh]

    Iter     Energy [mEh]          dE [mEh]         Residual      Time [s]
       1      -0.00001509       0.000015094       0.036460807             0
       2      -0.00001543       0.000000341       0.013887910             0
       3      -0.00001718       0.000001743       0.004683753             0
       4      -0.00001739       0.000000214       0.001391562             0
       5      -0.00001730      -0.000000090       0.000560542             1
       6      -0.00001730      -0.000000006       0.000186336             1
       7      -0.00001730       0.000000007       0.000060977             1
       8      -0.00001730       0.000000001       0.000015752             1
       9      -0.00001730      -0.000000000       0.000004103             1
      10      -0.00001730      -0.000000000       0.000000987             1

    CHF Iterations converged


    Iter     Energy [mEh]          dE [mEh]         Residual      Time [s]
       1      -0.00000975       0.000009746       0.023308235             0
       2      -0.00001020       0.000000453       0.009739253             0
       3      -0.00001090       0.000000705       0.003763047             0
       4      -0.00001110       0.000000196       0.000818625             0
       5      -0.00001105      -0.000000046       0.000374509             0
       6      -0.00001105      -0.000000005       0.000147375             0
       7      -0.00001105       0.000000004       0.000045658             0
       8      -0.00001105       0.000000000       0.000011714             1
       9      -0.00001105      -0.000000000       0.000004425             1
      10      -0.00001105      -0.000000000       0.000001775             1
      11      -0.00001105       0.000000000       0.000000504             1

    CHF Iterations converged

    Ind20,r (A<-B)      =    -0.000000017304 [Eh]
    Ind20,r (B<-A)      =    -0.000000011054 [Eh]
    Ind20,r             =    -0.000000028357 [Eh]
    Exch-Ind20,r (A<-B) =     0.000000000000 [Eh]
    Exch-Ind20,r (B<-A) =     0.000000000000 [Eh]
    Exch-Ind20,r        =     0.000000000000 [Eh]
    Disp20              =    -0.000000462582 [Eh]
    Disp20 (SS)         =    -0.000000231291 [Eh]
    Disp20 (OS)         =    -0.000000231291 [Eh]
    Exch-Disp20         =     0.000000000000 [Eh]
    Exch-Disp20 (SS)    =     0.000000000000 [Eh]
    Exch-Disp20 (OS)    =     0.000000000000 [Eh]

    SAPT Results 
  --------------------------------------------------------------------------------------------------------
    Electrostatics                  0.01127448 [mEh]       0.00707484 [kcal/mol]       0.02960115 [kJ/mol]
      Elst10,r                      0.01127448 [mEh]       0.00707484 [kcal/mol]       0.02960115 [kJ/mol]

    Exchange                       -0.00000000 [mEh]      -0.00000000 [kcal/mol]      -0.00000000 [kJ/mol]
      Exch10                       -0.00000000 [mEh]      -0.00000000 [kcal/mol]      -0.00000000 [kJ/mol]
      Exch10(S^2)                  -0.00000000 [mEh]      -0.00000000 [kcal/mol]      -0.00000000 [kJ/mol]

    Induction                      -0.00005171 [mEh]      -0.00003245 [kcal/mol]      -0.00013577 [kJ/mol]
      Ind20,r                      -0.00002836 [mEh]      -0.00001779 [kcal/mol]      -0.00007445 [kJ/mol]
      Exch-Ind20,r                  0.00000000 [mEh]       0.00000000 [kcal/mol]       0.00000000 [kJ/mol]
      delta HF,r (2)               -0.00002335 [mEh]      -0.00001465 [kcal/mol]      -0.00006132 [kJ/mol]

    Dispersion                     -0.00046258 [mEh]      -0.00029027 [kcal/mol]      -0.00121451 [kJ/mol]
      Disp20                       -0.00046258 [mEh]      -0.00029027 [kcal/mol]      -0.00121451 [kJ/mol]
      Exch-Disp20                   0.00000000 [mEh]       0.00000000 [kcal/mol]       0.00000000 [kJ/mol]
      Disp20 (SS)                  -0.00023129 [mEh]      -0.00014514 [kcal/mol]      -0.00060726 [kJ/mol]
      Disp20 (OS)                  -0.00023129 [mEh]      -0.00014514 [kcal/mol]      -0.00060726 [kJ/mol]
      Exch-Disp20 (SS)              0.00000000 [mEh]       0.00000000 [kcal/mol]       0.00000000 [kJ/mol]
      Exch-Disp20 (OS)              0.00000000 [mEh]       0.00000000 [kcal/mol]       0.00000000 [kJ/mol]

  Total HF                          0.01122277 [mEh]       0.00704240 [kcal/mol]       0.02946538 [kJ/mol]
  Total SAPT0                       0.01076019 [mEh]       0.00675212 [kcal/mol]       0.02825087 [kJ/mol]

  Special recipe for scaled SAPT0 (see Manual):
    Electrostatics sSAPT0           0.01127448 [mEh]       0.00707484 [kcal/mol]       0.02960115 [kJ/mol]
    Exchange sSAPT0                -0.00000000 [mEh]      -0.00000000 [kcal/mol]      -0.00000000 [kJ/mol]
    Induction sSAPT0               -0.00005171 [mEh]      -0.00003245 [kcal/mol]      -0.00013577 [kJ/mol]
    Dispersion sSAPT0              -0.00046258 [mEh]      -0.00029027 [kcal/mol]      -0.00121451 [kJ/mol]
  Total sSAPT0                      0.01076019 [mEh]       0.00675212 [kcal/mol]       0.02825087 [kJ/mol]
  --------------------------------------------------------------------------------------------------------

*** tstop() called on ds1 at Wed Sep  1 13:33:11 2021
Module time:
	user time   =      27.17 seconds =       0.45 minutes
	system time =       2.37 seconds =       0.04 minutes
	total time  =          5 seconds =       0.08 minutes
Total time:
	user time   =      63.05 seconds =       1.05 minutes
	system time =       3.22 seconds =       0.05 minutes
	total time  =         13 seconds =       0.22 minutes


Warning! sapt0 does not have an associated derived wavefunction.The returned wavefunction is the dimer SCF wavefunction.


    Psi4 stopped on: Wednesday, 01 September 2021 01:33PM
    Psi4 wall time for execution: 0:00:13.83

*** Psi4 exiting successfully. Buy a developer a beer!
