
    -----------------------------------------------------------------------
          Psi4: An Open-Source Ab Initio Electronic Structure Package
                               Psi4 1.4rc3 

                         Git: Rev {HEAD} 080dba6 


    D. G. A. Smith, L. A. Burns, A. C. Simmonett, R. M. Parrish,
    M. C. Schieber, R. Galvelis, P. Kraus, H. Kruse, R. Di Remigio,
    A. Alenaizan, A. M. James, S. Lehtola, J. P. Misiewicz, M. Scheurer,
    R. A. Shaw, J. B. Schriber, Y. Xie, Z. L. Glick, D. A. Sirianni,
    J. S. O'Brien, J. M. Waldrop, A. Kumar, E. G. Hohenstein,
    B. P. Pritchard, B. R. Brooks, H. F. Schaefer III, A. Yu. Sokolov,
    K. Patkowski, A. E. DePrince III, U. Bozkaya, R. A. King,
    F. A. Evangelista, J. M. Turney, T. D. Crawford, C. D. Sherrill,
    J. Chem. Phys. 152(18) 184108 (2020). https://doi.org/10.1063/5.0006002

                            Additional Code Authors
    E. T. Seidl, C. L. Janssen, E. F. Valeev, M. L. Leininger,
    J. F. Gonthier, R. M. Richard, H. R. McAlexander, M. Saitow, X. Wang,
    P. Verma, and M. H. Lechner

             Previous Authors, Complete List of Code Contributors,
                       and Citations for Specific Modules
    https://github.com/psi4/psi4/blob/master/codemeta.json
    https://github.com/psi4/psi4/graphs/contributors
    http://psicode.org/psi4manual/master/introduction.html#citing-psifour

    -----------------------------------------------------------------------


    Psi4 started on: Wednesday, 01 September 2021 01:10PM

    Process ID: 17627
    Host:       ds1
    PSIDATADIR: /theoryfs2/ds/csargent/miniconda3/envs/cle/share/psi4
    Memory:     500.0 MiB
    Threads:    6
    
  ==> Input File <==

--------------------------------------------------------------------------
# PSI4 file produced by CrystaLattE

# Generated from:               acetic_acid.xyz
# Psithon input for N-mer:      2mer-0+224
# Number of atoms per monomer:  [8, 8]
# Number of replicas:           2
# COM priority:                 2.608083519538e-05
# Minimum COM separations:      17.844 
# Separation priority:          5.427336357514e-05
# Minimum monomer separations:  13.977 
# Cutoff priority:              2.054860372257e-06
# Nuclear repulsion energy:     273.92875856448984

memory 7 GB

molecule Dimer_0_224 {
  O           -5.53102237       2.93940290       1.97762624 
  O           -2.40708886       0.90817734       0.04905909 
  H           -0.50304887       1.37579205       4.63880908 
  H            0.00000000       4.25104285       3.09072238 
  H           -2.38948215       4.01916779       5.40195041 
  H           -3.74771411       0.47147930      -1.21557512 
  C           -1.41859782       2.98500500       3.84405190 
  C           -3.32263781       2.28628814       1.91221413 
--
  O           -5.38513820     -16.38351916     -25.27742123 
  O           -8.50907170     -18.41474473     -27.20598839 
  H          -10.41311169     -17.94713001     -22.61623840 
  H          -10.91616057     -15.07187921     -24.16432509 
  H           -8.52667842     -15.30375427     -21.85309707 
  H           -7.16844646     -18.85144277     -28.47062259 
  C           -9.49756274     -16.33791706     -23.41099558 
  C           -7.59352275     -17.03663393     -25.34283335 
units = au
no_com
no_reorient
}

set {
  e_convergence 10
  d_convergence 10
  scf_type df
  mp2_type df
  cc_type df
  freeze_core true
}

energy('sapt0/aug-cc-pvdz')

--------------------------------------------------------------------------

  Memory set to   6.519 GiB by Python driver.

Scratch directory: /scratch/csargent/psi4.17562.33784/

Scratch directory: /scratch/csargent/psi4.17562.33784/

  //>>>>>>>>>>>>>>>>>>>>>>>>>>>>>>>>>>>//
  //              Dimer HF             //
  //<<<<<<<<<<<<<<<<<<<<<<<<<<<<<<<<<<<//


*** tstart() called on ds1
*** at Wed Sep  1 13:10:41 2021

   => Loading Basis Set <=

    Name: AUG-CC-PVDZ
    Role: ORBITAL
    Keyword: BASIS
    atoms 1-2, 9-10  entry O          line   254 file /theoryfs2/ds/csargent/miniconda3/envs/cle/share/psi4/basis/aug-cc-pvdz.gbs 
    atoms 3-6, 11-14 entry H          line    40 file /theoryfs2/ds/csargent/miniconda3/envs/cle/share/psi4/basis/aug-cc-pvdz.gbs 
    atoms 7-8, 15-16 entry C          line   182 file /theoryfs2/ds/csargent/miniconda3/envs/cle/share/psi4/basis/aug-cc-pvdz.gbs 


         ---------------------------------------------------------
                                   SCF
               by Justin Turney, Rob Parrish, Andy Simmonett
                          and Daniel G. A. Smith
                              RHF Reference
                        6 Threads,   6675 MiB Core
         ---------------------------------------------------------

  ==> Geometry <==

    Molecular point group: c1
    Full point group: C1

    Geometry (in Bohr), charge = 0, multiplicity = 1:

       Center              X                  Y                   Z               Mass       
    ------------   -----------------  -----------------  -----------------  -----------------
         O           -5.531022370000     2.939402900000     1.977626240000    15.994914619570
         O           -2.407088860000     0.908177340000     0.049059090000    15.994914619570
         H           -0.503048870000     1.375792050000     4.638809080000     1.007825032230
         H            0.000000000000     4.251042850000     3.090722380000     1.007825032230
         H           -2.389482150000     4.019167790000     5.401950410000     1.007825032230
         H           -3.747714110000     0.471479300000    -1.215575120000     1.007825032230
         C           -1.418597820000     2.985005000000     3.844051900000    12.000000000000
         C           -3.322637810000     2.286288140000     1.912214130000    12.000000000000
         O           -5.385138200000   -16.383519160000   -25.277421230000    15.994914619570
         O           -8.509071700000   -18.414744730000   -27.205988390000    15.994914619570
         H          -10.413111690000   -17.947130010000   -22.616238400000     1.007825032230
         H          -10.916160570000   -15.071879210000   -24.164325090000     1.007825032230
         H           -8.526678420000   -15.303754270000   -21.853097070000     1.007825032230
         H           -7.168446460000   -18.851442770000   -28.470622590000     1.007825032230
         C           -9.497562740000   -16.337917060000   -23.410995580000    12.000000000000
         C           -7.593522750000   -17.036633930000   -25.342833350000    12.000000000000

  Running in c1 symmetry.

  Rotational constants: A =      0.04908  B =      0.00100  C =      0.00098 [cm^-1]
  Rotational constants: A =   1471.40127  B =     29.91882  C =     29.35928 [MHz]
  Nuclear repulsion =  273.928758691013286

  Charge       = 0
  Multiplicity = 1
  Electrons    = 64
  Nalpha       = 32
  Nbeta        = 32

  ==> Algorithm <==

  SCF Algorithm Type is DF.
  DIIS enabled.
  MOM disabled.
  Fractional occupation disabled.
  Guess Type is SAD.
  Energy threshold   = 1.00e-10
  Density threshold  = 1.00e-10
  Integral threshold = 1.00e-12

  ==> Primary Basis <==

  Basis Set: AUG-CC-PVDZ
    Blend: AUG-CC-PVDZ
    Number of shells: 112
    Number of basis functions: 256
    Number of Cartesian functions: 272
    Spherical Harmonics?: true
    Max angular momentum: 2

   => Loading Basis Set <=

    Name: (AUG-CC-PVDZ AUX)
    Role: JKFIT
    Keyword: DF_BASIS_SCF
    atoms 1-2, 9-10  entry O          line   270 file /theoryfs2/ds/csargent/miniconda3/envs/cle/share/psi4/basis/aug-cc-pvdz-jkfit.gbs 
    atoms 3-6, 11-14 entry H          line    70 file /theoryfs2/ds/csargent/miniconda3/envs/cle/share/psi4/basis/aug-cc-pvdz-jkfit.gbs 
    atoms 7-8, 15-16 entry C          line   154 file /theoryfs2/ds/csargent/miniconda3/envs/cle/share/psi4/basis/aug-cc-pvdz-jkfit.gbs 

  ==> Integral Setup <==

  ==> DiskDFJK: Density-Fitted J/K Matrices <==

    J tasked:                  Yes
    K tasked:                  Yes
    wK tasked:                  No
    OpenMP threads:              6
    Integrals threads:           6
    Memory [MiB]:             5006
    Algorithm:                Core
    Integral Cache:           SAVE
    Schwarz Cutoff:          1E-12
    Fitting Condition:       1E-10

   => Auxiliary Basis Set <=

  Basis Set: (AUG-CC-PVDZ AUX)
    Blend: AUG-CC-PVDZ-JKFIT
    Number of shells: 320
    Number of basis functions: 944
    Number of Cartesian functions: 1088
    Spherical Harmonics?: true
    Max angular momentum: 3

  Minimum eigenvalue in the overlap matrix is 1.0277190826E-04.
  Reciprocal condition number of the overlap matrix is 9.6535812333E-06.
    Using symmetric orthogonalization.

  ==> Pre-Iterations <==

  SCF Guess: Superposition of Atomic Densities via on-the-fly atomic UHF (no occupation information).

   -------------------------
    Irrep   Nso     Nmo    
   -------------------------
     A        256     256 
   -------------------------
    Total     256     256
   -------------------------

  ==> Iterations <==

                           Total Energy        Delta E     RMS |[F,P]|

   @DF-RHF iter SAD:  -453.97985887006575   -4.53980e+02   0.00000e+00 
   @DF-RHF iter   1:  -455.36187538944733   -1.38202e+00   3.22730e-03 DIIS
   @DF-RHF iter   2:  -455.60188030568827   -2.40005e-01   1.87319e-03 DIIS
   @DF-RHF iter   3:  -455.68266282935855   -8.07825e-02   3.30193e-04 DIIS
   @DF-RHF iter   4:  -455.68713370351782   -4.47087e-03   1.46084e-04 DIIS
   @DF-RHF iter   5:  -455.68809477825744   -9.61075e-04   3.42295e-05 DIIS
   @DF-RHF iter   6:  -455.68816906622345   -7.42880e-05   1.66557e-05 DIIS
   @DF-RHF iter   7:  -455.68818862818318   -1.95620e-05   5.43206e-06 DIIS
   @DF-RHF iter   8:  -455.68819178961576   -3.16143e-06   1.43627e-06 DIIS
   @DF-RHF iter   9:  -455.68819202283481   -2.33219e-07   3.01223e-07 DIIS
   @DF-RHF iter  10:  -455.68819203048088   -7.64607e-09   7.94396e-08 DIIS
   @DF-RHF iter  11:  -455.68819203088873   -4.07852e-10   2.54825e-08 DIIS
   @DF-RHF iter  12:  -455.68819203093244   -4.37126e-11   6.03874e-09 DIIS
   @DF-RHF iter  13:  -455.68819203093523   -2.78533e-12   1.29620e-09 DIIS
   @DF-RHF iter  14:  -455.68819203093562   -3.97904e-13   5.19507e-10 DIIS
   @DF-RHF iter  15:  -455.68819203093562    0.00000e+00   2.05051e-10 DIIS
   @DF-RHF iter  16:  -455.68819203093597   -3.41061e-13   5.77097e-11 DIIS
  Energy and wave function converged.


  ==> Post-Iterations <==

    Orbital Energies [Eh]
    ---------------------

    Doubly Occupied:                                                      

       1A    -20.629720     2A    -20.629223     3A    -20.553079  
       4A    -20.552592     5A    -11.396379     6A    -11.395890  
       7A    -11.251246     8A    -11.250749     9A     -1.476106  
      10A     -1.475613    11A     -1.357756    12A     -1.357267  
      13A     -1.033264    14A     -1.032769    15A     -0.838180  
      16A     -0.837683    17A     -0.703334    18A     -0.702844  
      19A     -0.688726    20A     -0.688232    21A     -0.658005  
      22A     -0.657512    23A     -0.576800    24A     -0.576306  
      25A     -0.569951    26A     -0.569456    27A     -0.561676  
      28A     -0.561174    29A     -0.475616    30A     -0.475129  
      31A     -0.452709    32A     -0.452222  

    Virtual:                                                              

      33A      0.032012    34A      0.032503    35A      0.045400  
      36A      0.045904    37A      0.054902    38A      0.055358  
      39A      0.064226    40A      0.064826    41A      0.098510  
      42A      0.098989    43A      0.117081    44A      0.117540  
      45A      0.117613    46A      0.118078    47A      0.140269  
      48A      0.140790    49A      0.151749    50A      0.152281  
      51A      0.156072    52A      0.156568    53A      0.164301  
      54A      0.164812    55A      0.171049    56A      0.171540  
      57A      0.196053    58A      0.196541    59A      0.209011  
      60A      0.209505    61A      0.233143    62A      0.233637  
      63A      0.234678    64A      0.235206    65A      0.270562  
      66A      0.271069    67A      0.289995    68A      0.290489  
      69A      0.295557    70A      0.296059    71A      0.319592  
      72A      0.320073    73A      0.322501    74A      0.322969  
      75A      0.347018    76A      0.347506    77A      0.370368  
      78A      0.370856    79A      0.378631    80A      0.379113  
      81A      0.393846    82A      0.394349    83A      0.401169  
      84A      0.401657    85A      0.426444    86A      0.426971  
      87A      0.437954    88A      0.438446    89A      0.441765  
      90A      0.442258    91A      0.475301    92A      0.475800  
      93A      0.492112    94A      0.492600    95A      0.524501  
      96A      0.525000    97A      0.536966    98A      0.537467  
      99A      0.553238   100A      0.553731   101A      0.569454  
     102A      0.569967   103A      0.583523   104A      0.584021  
     105A      0.601855   106A      0.602361   107A      0.617969  
     108A      0.618467   109A      0.640062   110A      0.640550  
     111A      0.649039   112A      0.649537   113A      0.666460  
     114A      0.666944   115A      0.683934   116A      0.684436  
     117A      0.696924   118A      0.697411   119A      0.703309  
     120A      0.703799   121A      0.733033   122A      0.733521  
     123A      0.742484   124A      0.742972   125A      0.798193  
     126A      0.798687   127A      0.853320   128A      0.853816  
     129A      0.876563   130A      0.877053   131A      0.912133  
     132A      0.912631   133A      0.949441   134A      0.949930  
     135A      0.954114   136A      0.954610   137A      0.982883  
     138A      0.983377   139A      1.041293   140A      1.041780  
     141A      1.088554   142A      1.089046   143A      1.101581  
     144A      1.102070   145A      1.118093   146A      1.118594  
     147A      1.157266   148A      1.157761   149A      1.171890  
     150A      1.172383   151A      1.176100   152A      1.176591  
     153A      1.235791   154A      1.236292   155A      1.271918  
     156A      1.272401   157A      1.318949   158A      1.319439  
     159A      1.357903   160A      1.358401   161A      1.390159  
     162A      1.390646   163A      1.412184   164A      1.412675  
     165A      1.462526   166A      1.463012   167A      1.467718  
     168A      1.468213   169A      1.545745   170A      1.546244  
     171A      1.634788   172A      1.635285   173A      1.649656  
     174A      1.650149   175A      1.714841   176A      1.715334  
     177A      1.755536   178A      1.756029   179A      1.772618  
     180A      1.773114   181A      1.847766   182A      1.848254  
     183A      1.865242   184A      1.865739   185A      1.883550  
     186A      1.884045   187A      1.966204   188A      1.966703  
     189A      1.979184   190A      1.979677   191A      2.026032  
     192A      2.026526   193A      2.037383   194A      2.037876  
     195A      2.122585   196A      2.123080   197A      2.171795  
     198A      2.172289   199A      2.192876   200A      2.193370  
     201A      2.244502   202A      2.245001   203A      2.253383  
     204A      2.253877   205A      2.272086   206A      2.272574  
     207A      2.311984   208A      2.312482   209A      2.379346  
     210A      2.379837   211A      2.430075   212A      2.430570  
     213A      2.438403   214A      2.438897   215A      2.536041  
     216A      2.536532   217A      2.623319   218A      2.623813  
     219A      2.652038   220A      2.652535   221A      2.783409  
     222A      2.783909   223A      2.833386   224A      2.833881  
     225A      2.885861   226A      2.886353   227A      2.974041  
     228A      2.974535   229A      3.001345   230A      3.001838  
     231A      3.016054   232A      3.016550   233A      3.178679  
     234A      3.179174   235A      3.345857   236A      3.346346  
     237A      3.666458   238A      3.666956   239A      3.690177  
     240A      3.690673   241A      3.736182   242A      3.736676  
     243A      3.759386   244A      3.759873   245A      3.790055  
     246A      3.790545   247A      3.804976   248A      3.805462  
     249A      3.900156   250A      3.900649   251A      4.050099  
     252A      4.050591   253A      4.142069   254A      4.142556  
     255A      4.309708   256A      4.310204  

    Final Occupation by Irrep:
              A 
    DOCC [    32 ]

  @DF-RHF Final Energy:  -455.68819203093597

   => Energetics <=

    Nuclear Repulsion Energy =            273.9287586910132859
    One-Electron Energy =               -1166.3594903253228949
    Two-Electron Energy =                 436.7425396033736433
    Total Energy =                       -455.6881920309359657

Computation Completed


Properties will be evaluated at   0.000000,   0.000000,   0.000000 [a0]

Properties computed using the SCF density matrix

  Nuclear Dipole Moment: [e a0]
     X:  -349.3171      Y:  -473.2817      Z:  -746.8275

  Electronic Dipole Moment: [e a0]
     X:   349.3173      Y:   472.7154      Z:   746.6601

  Dipole Moment: [e a0]
     X:     0.0002      Y:    -0.5663      Z:    -0.1675     Total:     0.5906

  Dipole Moment: [D]
     X:     0.0004      Y:    -1.4395      Z:    -0.4257     Total:     1.5011


*** tstop() called on ds1 at Wed Sep  1 13:10:44 2021
Module time:
	user time   =      14.40 seconds =       0.24 minutes
	system time =       0.41 seconds =       0.01 minutes
	total time  =          3 seconds =       0.05 minutes
Total time:
	user time   =      14.40 seconds =       0.24 minutes
	system time =       0.41 seconds =       0.01 minutes
	total time  =          3 seconds =       0.05 minutes

  //>>>>>>>>>>>>>>>>>>>>>>>>>>>>>>>>>>>//
  //            Monomer A HF           //
  //<<<<<<<<<<<<<<<<<<<<<<<<<<<<<<<<<<<//


*** tstart() called on ds1
*** at Wed Sep  1 13:10:44 2021

   => Loading Basis Set <=

    Name: AUG-CC-PVDZ
    Role: ORBITAL
    Keyword: BASIS
    atoms 1-2, 9-10  entry O          line   254 file /theoryfs2/ds/csargent/miniconda3/envs/cle/share/psi4/basis/aug-cc-pvdz.gbs 
    atoms 3-6, 11-14 entry H          line    40 file /theoryfs2/ds/csargent/miniconda3/envs/cle/share/psi4/basis/aug-cc-pvdz.gbs 
    atoms 7-8, 15-16 entry C          line   182 file /theoryfs2/ds/csargent/miniconda3/envs/cle/share/psi4/basis/aug-cc-pvdz.gbs 


         ---------------------------------------------------------
                                   SCF
               by Justin Turney, Rob Parrish, Andy Simmonett
                          and Daniel G. A. Smith
                              RHF Reference
                        6 Threads,   6675 MiB Core
         ---------------------------------------------------------

  ==> Geometry <==

    Molecular point group: c1
    Full point group: C1

    Geometry (in Bohr), charge = 0, multiplicity = 1:

       Center              X                  Y                   Z               Mass       
    ------------   -----------------  -----------------  -----------------  -----------------
         O           -5.531022370000     2.939402900000     1.977626240000    15.994914619570
         O           -2.407088860000     0.908177340000     0.049059090000    15.994914619570
         H           -0.503048870000     1.375792050000     4.638809080000     1.007825032230
         H            0.000000000000     4.251042850000     3.090722380000     1.007825032230
         H           -2.389482150000     4.019167790000     5.401950410000     1.007825032230
         H           -3.747714110000     0.471479300000    -1.215575120000     1.007825032230
         C           -1.418597820000     2.985005000000     3.844051900000    12.000000000000
         C           -3.322637810000     2.286288140000     1.912214130000    12.000000000000
      Gh(O)          -5.385138200000   -16.383519160000   -25.277421230000    15.994914619570
      Gh(O)          -8.509071700000   -18.414744730000   -27.205988390000    15.994914619570
      Gh(H)         -10.413111690000   -17.947130010000   -22.616238400000     1.007825032230
      Gh(H)         -10.916160570000   -15.071879210000   -24.164325090000     1.007825032230
      Gh(H)          -8.526678420000   -15.303754270000   -21.853097070000     1.007825032230
      Gh(H)          -7.168446460000   -18.851442770000   -28.470622590000     1.007825032230
      Gh(C)          -9.497562740000   -16.337917060000   -23.410995580000    12.000000000000
      Gh(C)          -7.593522750000   -17.036633930000   -25.342833350000    12.000000000000

  Running in c1 symmetry.

  Rotational constants: A =      0.04908  B =      0.00100  C =      0.00098 [cm^-1]
  Rotational constants: A =   1471.40127  B =     29.91882  C =     29.35928 [MHz]
  Nuclear repulsion =  121.748430210971620

  Charge       = 0
  Multiplicity = 1
  Electrons    = 32
  Nalpha       = 16
  Nbeta        = 16

  ==> Algorithm <==

  SCF Algorithm Type is DF.
  DIIS enabled.
  MOM disabled.
  Fractional occupation disabled.
  Guess Type is SAD.
  Energy threshold   = 1.00e-10
  Density threshold  = 1.00e-10
  Integral threshold = 1.00e-12

  ==> Primary Basis <==

  Basis Set: AUG-CC-PVDZ
    Blend: AUG-CC-PVDZ
    Number of shells: 112
    Number of basis functions: 256
    Number of Cartesian functions: 272
    Spherical Harmonics?: true
    Max angular momentum: 2

   => Loading Basis Set <=

    Name: (AUG-CC-PVDZ AUX)
    Role: JKFIT
    Keyword: DF_BASIS_SCF
    atoms 1-2, 9-10  entry O          line   270 file /theoryfs2/ds/csargent/miniconda3/envs/cle/share/psi4/basis/aug-cc-pvdz-jkfit.gbs 
    atoms 3-6, 11-14 entry H          line    70 file /theoryfs2/ds/csargent/miniconda3/envs/cle/share/psi4/basis/aug-cc-pvdz-jkfit.gbs 
    atoms 7-8, 15-16 entry C          line   154 file /theoryfs2/ds/csargent/miniconda3/envs/cle/share/psi4/basis/aug-cc-pvdz-jkfit.gbs 

  ==> Integral Setup <==

  ==> DiskDFJK: Density-Fitted J/K Matrices <==

    J tasked:                  Yes
    K tasked:                  Yes
    wK tasked:                  No
    OpenMP threads:              6
    Integrals threads:           6
    Memory [MiB]:             5006
    Algorithm:                Core
    Integral Cache:           LOAD
    Schwarz Cutoff:          1E-12
    Fitting Condition:       1E-10

   => Auxiliary Basis Set <=

  Basis Set: (AUG-CC-PVDZ AUX)
    Blend: AUG-CC-PVDZ-JKFIT
    Number of shells: 320
    Number of basis functions: 944
    Number of Cartesian functions: 1088
    Spherical Harmonics?: true
    Max angular momentum: 3

  Minimum eigenvalue in the overlap matrix is 1.0277190826E-04.
  Reciprocal condition number of the overlap matrix is 9.6535812333E-06.
    Using symmetric orthogonalization.

  ==> Pre-Iterations <==

  SCF Guess: Superposition of Atomic Densities via on-the-fly atomic UHF (no occupation information).

   -------------------------
    Irrep   Nso     Nmo    
   -------------------------
     A        256     256 
   -------------------------
    Total     256     256
   -------------------------

  ==> Iterations <==

                           Total Energy        Delta E     RMS |[F,P]|

   @DF-RHF iter SAD:  -226.98992942932142   -2.26990e+02   0.00000e+00 
   @DF-RHF iter   1:  -227.68091168143394   -6.90982e-01   2.28211e-03 DIIS
   @DF-RHF iter   2:  -227.80091445453473   -1.20003e-01   1.32478e-03 DIIS
   @DF-RHF iter   3:  -227.84131987381701   -4.04054e-02   2.33581e-04 DIIS
   @DF-RHF iter   4:  -227.84355633735868   -2.23646e-03   1.03339e-04 DIIS
   @DF-RHF iter   5:  -227.84403723836192   -4.80901e-04   2.42136e-05 DIIS
   @DF-RHF iter   6:  -227.84407440635994   -3.71680e-05   1.17797e-05 DIIS
   @DF-RHF iter   7:  -227.84408419448542   -9.78813e-06   3.84272e-06 DIIS
   @DF-RHF iter   8:  -227.84408577607212   -1.58159e-06   1.01577e-06 DIIS
   @DF-RHF iter   9:  -227.84408589272226   -1.16650e-07   2.12954e-07 DIIS
   @DF-RHF iter  10:  -227.84408589654313   -3.82087e-09   5.61608e-08 DIIS
   @DF-RHF iter  11:  -227.84408589674629   -2.03158e-10   1.80147e-08 DIIS
   @DF-RHF iter  12:  -227.84408589676815   -2.18563e-11   4.26466e-09 DIIS
   @DF-RHF iter  13:  -227.84408589677003   -1.87583e-12   8.93569e-10 DIIS
   @DF-RHF iter  14:  -227.84408589677008   -5.68434e-14   2.86711e-10 DIIS
   @DF-RHF iter  15:  -227.84408589677008    0.00000e+00   1.08058e-10 DIIS
   @DF-RHF iter  16:  -227.84408589676997    1.13687e-13   2.86099e-11 DIIS
  Energy and wave function converged.


  ==> Post-Iterations <==

    Orbital Energies [Eh]
    ---------------------

    Doubly Occupied:                                                      

       1A    -20.629476     2A    -20.552804     3A    -11.396108  
       4A    -11.250979     5A     -1.475853     6A     -1.357486  
       7A     -1.032999     8A     -0.837930     9A     -0.703065  
      10A     -0.688465    11A     -0.657749    12A     -0.576538  
      13A     -0.569697    14A     -0.561403    15A     -0.475343  
      16A     -0.452434  

    Virtual:                                                              

      17A      0.024520    18A      0.032214    19A      0.045623  
      20A      0.046577    21A      0.055084    22A      0.055347  
      23A      0.056201    24A      0.064645    25A      0.085100  
      26A      0.098769    27A      0.104383    28A      0.111955  
      29A      0.117100    30A      0.117323    31A      0.117857  
      32A      0.140053    33A      0.140567    34A      0.141126  
      35A      0.146578    36A      0.151977    37A      0.156356  
      38A      0.164577    39A      0.171320    40A      0.176129  
      41A      0.196303    42A      0.205397    43A      0.209237  
      44A      0.214361    45A      0.226049    46A      0.233376  
      47A      0.234963    48A      0.243770    49A      0.259994  
      50A      0.264581    51A      0.270849    52A      0.276380  
      53A      0.285194    54A      0.290295    55A      0.295802  
      56A      0.319834    57A      0.322781    58A      0.332026  
      59A      0.335991    60A      0.347275    61A      0.369160  
      62A      0.370652    63A      0.378870    64A      0.394119  
      65A      0.399034    66A      0.401429    67A      0.409537  
      68A      0.426690    69A      0.430890    70A      0.437681  
      71A      0.438218    72A      0.442006    73A      0.460233  
      74A      0.475555    75A      0.489993    76A      0.492357  
      77A      0.497059    78A      0.516269    79A      0.524763  
      80A      0.537262    81A      0.541538    82A      0.543311  
      83A      0.553487    84A      0.559393    85A      0.569740  
      86A      0.583791    87A      0.586574    88A      0.602101  
      89A      0.616077    90A      0.618231    91A      0.635995  
      92A      0.636820    93A      0.640311    94A      0.649301  
      95A      0.666705    96A      0.674893    97A      0.684210  
      98A      0.689688    99A      0.697190   100A      0.700563  
     101A      0.703571   102A      0.727875   103A      0.733289  
     104A      0.742748   105A      0.753373   106A      0.760052  
     107A      0.786915   108A      0.798460   109A      0.815530  
     110A      0.819847   111A      0.847987   112A      0.853582  
     113A      0.876833   114A      0.887930   115A      0.896173  
     116A      0.912403   117A      0.947357   118A      0.949697  
     119A      0.954375   120A      0.957871   121A      0.975655  
     122A      0.983144   123A      1.037703   124A      1.041547  
     125A      1.044949   126A      1.088819   127A      1.101839  
     128A      1.106167   129A      1.118367   130A      1.157520  
     131A      1.162317   132A      1.172141   133A      1.176359  
     134A      1.190642   135A      1.236033   136A      1.260387  
     137A      1.269982   138A      1.272187   139A      1.319230  
     140A      1.329326   141A      1.358181   142A      1.383829  
     143A      1.390440   144A      1.396018   145A      1.412451  
     146A      1.434392   147A      1.458118   148A      1.462795  
     149A      1.467403   150A      1.467976   151A      1.469281  
     152A      1.537299   153A      1.546014   154A      1.569048  
     155A      1.635048   156A      1.649915   157A      1.683469  
     158A      1.715101   159A      1.717218   160A      1.755800  
     161A      1.772884   162A      1.799733   163A      1.848039  
     164A      1.865503   165A      1.882641   166A      1.883811  
     167A      1.936797   168A      1.966454   169A      1.979453  
     170A      2.026298   171A      2.037642   172A      2.070530  
     173A      2.122848   174A      2.172049   175A      2.193137  
     176A      2.244771   177A      2.250644   178A      2.253643  
     179A      2.264734   180A      2.272354   181A      2.273755  
     182A      2.302769   183A      2.312246   184A      2.336366  
     185A      2.338908   186A      2.361936   187A      2.376326  
     188A      2.379604   189A      2.430330   190A      2.438663  
     191A      2.466949   192A      2.505663   193A      2.536303  
     194A      2.585771   195A      2.623585   196A      2.652307  
     197A      2.664491   198A      2.698128   199A      2.754156  
     200A      2.783681   201A      2.785995   202A      2.824012  
     203A      2.833647   204A      2.886121   205A      2.915823  
     206A      2.974291   207A      3.001602   208A      3.016316  
     209A      3.042535   210A      3.178935   211A      3.182257  
     212A      3.278435   213A      3.310533   214A      3.346124  
     215A      3.356718   216A      3.431344   217A      3.486544  
     218A      3.662635   219A      3.666705   220A      3.690423  
     221A      3.736441   222A      3.739964   223A      3.759662  
     224A      3.790324   225A      3.805251   226A      3.900417  
     227A      4.025969   228A      4.050368   229A      4.142340  
     230A      4.153597   231A      4.309953   232A      4.504824  
     233A      4.616797   234A      4.724804   235A      4.925805  
     236A      4.969639   237A      4.977927   238A      5.001552  
     239A      5.016777   240A      5.033667   241A      5.052373  
     242A      5.221901   243A      5.244094   244A      5.615169  
     245A      5.661148   246A      5.791260   247A      5.868941  
     248A      6.052711   249A      6.228752   250A      6.520733  
     251A      6.790213   252A      7.092887   253A     18.346160  
     254A     18.940663   255A     33.525434   256A     33.563537  

    Final Occupation by Irrep:
              A 
    DOCC [    16 ]

  @DF-RHF Final Energy:  -227.84408589676997

   => Energetics <=

    Nuclear Repulsion Energy =            121.7484302109716197
    One-Electron Energy =                -552.7483714425666221
    Two-Electron Energy =                 203.1558553348250484
    Total Energy =                       -227.8440858967699683

Computation Completed


Properties will be evaluated at   0.000000,   0.000000,   0.000000 [a0]

Properties computed using the SCF density matrix

  Nuclear Dipole Moment: [e a0]
     X:   -98.5925      Y:    72.5259      Z:    62.6670

  Electronic Dipole Moment: [e a0]
     X:    99.4206      Y:   -72.8088      Z:   -62.7502

  Dipole Moment: [e a0]
     X:     0.8281      Y:    -0.2829      Z:    -0.0832     Total:     0.8790

  Dipole Moment: [D]
     X:     2.1048      Y:    -0.7191      Z:    -0.2116     Total:     2.2342


*** tstop() called on ds1 at Wed Sep  1 13:10:46 2021
Module time:
	user time   =      10.58 seconds =       0.18 minutes
	system time =       0.44 seconds =       0.01 minutes
	total time  =          2 seconds =       0.03 minutes
Total time:
	user time   =      25.15 seconds =       0.42 minutes
	system time =       0.86 seconds =       0.01 minutes
	total time  =          5 seconds =       0.08 minutes

  //>>>>>>>>>>>>>>>>>>>>>>>>>>>>>>>>>>>//
  //            Monomer B HF           //
  //<<<<<<<<<<<<<<<<<<<<<<<<<<<<<<<<<<<//


*** tstart() called on ds1
*** at Wed Sep  1 13:10:46 2021

   => Loading Basis Set <=

    Name: AUG-CC-PVDZ
    Role: ORBITAL
    Keyword: BASIS
    atoms 1-2, 9-10  entry O          line   254 file /theoryfs2/ds/csargent/miniconda3/envs/cle/share/psi4/basis/aug-cc-pvdz.gbs 
    atoms 3-6, 11-14 entry H          line    40 file /theoryfs2/ds/csargent/miniconda3/envs/cle/share/psi4/basis/aug-cc-pvdz.gbs 
    atoms 7-8, 15-16 entry C          line   182 file /theoryfs2/ds/csargent/miniconda3/envs/cle/share/psi4/basis/aug-cc-pvdz.gbs 


         ---------------------------------------------------------
                                   SCF
               by Justin Turney, Rob Parrish, Andy Simmonett
                          and Daniel G. A. Smith
                              RHF Reference
                        6 Threads,   6675 MiB Core
         ---------------------------------------------------------

  ==> Geometry <==

    Molecular point group: c1
    Full point group: C1

    Geometry (in Bohr), charge = 0, multiplicity = 1:

       Center              X                  Y                   Z               Mass       
    ------------   -----------------  -----------------  -----------------  -----------------
      Gh(O)          -5.531022370000     2.939402900000     1.977626240000    15.994914619570
      Gh(O)          -2.407088860000     0.908177340000     0.049059090000    15.994914619570
      Gh(H)          -0.503048870000     1.375792050000     4.638809080000     1.007825032230
      Gh(H)           0.000000000000     4.251042850000     3.090722380000     1.007825032230
      Gh(H)          -2.389482150000     4.019167790000     5.401950410000     1.007825032230
      Gh(H)          -3.747714110000     0.471479300000    -1.215575120000     1.007825032230
      Gh(C)          -1.418597820000     2.985005000000     3.844051900000    12.000000000000
      Gh(C)          -3.322637810000     2.286288140000     1.912214130000    12.000000000000
         O           -5.385138200000   -16.383519160000   -25.277421230000    15.994914619570
         O           -8.509071700000   -18.414744730000   -27.205988390000    15.994914619570
         H          -10.413111690000   -17.947130010000   -22.616238400000     1.007825032230
         H          -10.916160570000   -15.071879210000   -24.164325090000     1.007825032230
         H           -8.526678420000   -15.303754270000   -21.853097070000     1.007825032230
         H           -7.168446460000   -18.851442770000   -28.470622590000     1.007825032230
         C           -9.497562740000   -16.337917060000   -23.410995580000    12.000000000000
         C           -7.593522750000   -17.036633930000   -25.342833350000    12.000000000000

  Running in c1 symmetry.

  Rotational constants: A =      0.04908  B =      0.00100  C =      0.00098 [cm^-1]
  Rotational constants: A =   1471.40127  B =     29.91882  C =     29.35928 [MHz]
  Nuclear repulsion =  121.748430299157846

  Charge       = 0
  Multiplicity = 1
  Electrons    = 32
  Nalpha       = 16
  Nbeta        = 16

  ==> Algorithm <==

  SCF Algorithm Type is DF.
  DIIS enabled.
  MOM disabled.
  Fractional occupation disabled.
  Guess Type is SAD.
  Energy threshold   = 1.00e-10
  Density threshold  = 1.00e-10
  Integral threshold = 1.00e-12

  ==> Primary Basis <==

  Basis Set: AUG-CC-PVDZ
    Blend: AUG-CC-PVDZ
    Number of shells: 112
    Number of basis functions: 256
    Number of Cartesian functions: 272
    Spherical Harmonics?: true
    Max angular momentum: 2

   => Loading Basis Set <=

    Name: (AUG-CC-PVDZ AUX)
    Role: JKFIT
    Keyword: DF_BASIS_SCF
    atoms 1-2, 9-10  entry O          line   270 file /theoryfs2/ds/csargent/miniconda3/envs/cle/share/psi4/basis/aug-cc-pvdz-jkfit.gbs 
    atoms 3-6, 11-14 entry H          line    70 file /theoryfs2/ds/csargent/miniconda3/envs/cle/share/psi4/basis/aug-cc-pvdz-jkfit.gbs 
    atoms 7-8, 15-16 entry C          line   154 file /theoryfs2/ds/csargent/miniconda3/envs/cle/share/psi4/basis/aug-cc-pvdz-jkfit.gbs 

  ==> Integral Setup <==

  ==> DiskDFJK: Density-Fitted J/K Matrices <==

    J tasked:                  Yes
    K tasked:                  Yes
    wK tasked:                  No
    OpenMP threads:              6
    Integrals threads:           6
    Memory [MiB]:             5006
    Algorithm:                Core
    Integral Cache:           LOAD
    Schwarz Cutoff:          1E-12
    Fitting Condition:       1E-10

   => Auxiliary Basis Set <=

  Basis Set: (AUG-CC-PVDZ AUX)
    Blend: AUG-CC-PVDZ-JKFIT
    Number of shells: 320
    Number of basis functions: 944
    Number of Cartesian functions: 1088
    Spherical Harmonics?: true
    Max angular momentum: 3

  Minimum eigenvalue in the overlap matrix is 1.0277190826E-04.
  Reciprocal condition number of the overlap matrix is 9.6535812333E-06.
    Using symmetric orthogonalization.

  ==> Pre-Iterations <==

  SCF Guess: Superposition of Atomic Densities via on-the-fly atomic UHF (no occupation information).

   -------------------------
    Irrep   Nso     Nmo    
   -------------------------
     A        256     256 
   -------------------------
    Total     256     256
   -------------------------

  ==> Iterations <==

                           Total Energy        Delta E     RMS |[F,P]|

   @DF-RHF iter SAD:  -226.98992943938029   -2.26990e+02   0.00000e+00 
   @DF-RHF iter   1:  -227.68091167986995   -6.90982e-01   2.28211e-03 DIIS
   @DF-RHF iter   2:  -227.80091445332451   -1.20003e-01   1.32478e-03 DIIS
   @DF-RHF iter   3:  -227.84131987246218   -4.04054e-02   2.33581e-04 DIIS
   @DF-RHF iter   4:  -227.84355633596380   -2.23646e-03   1.03339e-04 DIIS
   @DF-RHF iter   5:  -227.84403723695723   -4.80901e-04   2.42136e-05 DIIS
   @DF-RHF iter   6:  -227.84407440495235   -3.71680e-05   1.17797e-05 DIIS
   @DF-RHF iter   7:  -227.84408419307800   -9.78813e-06   3.84272e-06 DIIS
   @DF-RHF iter   8:  -227.84408577466422   -1.58159e-06   1.01577e-06 DIIS
   @DF-RHF iter   9:  -227.84408589131465   -1.16650e-07   2.12953e-07 DIIS
   @DF-RHF iter  10:  -227.84408589513490   -3.82025e-09   5.61608e-08 DIIS
   @DF-RHF iter  11:  -227.84408589533902   -2.04125e-10   1.80147e-08 DIIS
   @DF-RHF iter  12:  -227.84408589536037   -2.13447e-11   4.26466e-09 DIIS
   @DF-RHF iter  13:  -227.84408589536235   -1.98952e-12   8.93569e-10 DIIS
   @DF-RHF iter  14:  -227.84408589536255   -1.98952e-13   2.86711e-10 DIIS
   @DF-RHF iter  15:  -227.84408589536221    3.41061e-13   1.08058e-10 DIIS
   @DF-RHF iter  16:  -227.84408589536247   -2.55795e-13   2.86098e-11 DIIS
  Energy and wave function converged.


  ==> Post-Iterations <==

    Orbital Energies [Eh]
    ---------------------

    Doubly Occupied:                                                      

       1A    -20.629476     2A    -20.552804     3A    -11.396108  
       4A    -11.250979     5A     -1.475853     6A     -1.357486  
       7A     -1.032999     8A     -0.837930     9A     -0.703065  
      10A     -0.688465    11A     -0.657749    12A     -0.576538  
      13A     -0.569697    14A     -0.561403    15A     -0.475343  
      16A     -0.452434  

    Virtual:                                                              

      17A      0.025014    18A      0.032214    19A      0.045626  
      20A      0.047100    21A      0.055083    22A      0.055806  
      23A      0.056721    24A      0.064644    25A      0.085638  
      26A      0.098769    27A      0.104847    28A      0.112403  
      29A      0.117323    30A      0.117605    31A      0.117857  
      32A      0.140517    33A      0.140641    34A      0.141618  
      35A      0.147068    36A      0.151978    37A      0.156356  
      38A      0.164577    39A      0.171320    40A      0.176601  
      41A      0.196303    42A      0.205888    43A      0.209237  
      44A      0.214859    45A      0.226555    46A      0.233376  
      47A      0.234963    48A      0.244256    49A      0.260458  
      50A      0.265053    51A      0.270849    52A      0.276874  
      53A      0.285696    54A      0.290295    55A      0.295802  
      56A      0.319834    57A      0.322781    58A      0.332544  
      59A      0.336492    60A      0.347275    61A      0.369664  
      62A      0.370652    63A      0.378870    64A      0.394119  
      65A      0.399529    66A      0.401429    67A      0.410024  
      68A      0.426691    69A      0.431378    70A      0.438161  
      71A      0.438218    72A      0.442006    73A      0.460723  
      74A      0.475555    75A      0.490485    76A      0.492357  
      77A      0.497549    78A      0.516775    79A      0.524763  
      80A      0.537262    81A      0.542044    82A      0.543821  
      83A      0.553487    84A      0.559885    85A      0.569740  
      86A      0.583791    87A      0.587057    88A      0.602101  
      89A      0.616571    90A      0.618232    91A      0.636487  
      92A      0.637313    93A      0.640311    94A      0.649301  
      95A      0.666705    96A      0.675380    97A      0.684210  
      98A      0.690184    99A      0.697190   100A      0.701055  
     101A      0.703571   102A      0.728367   103A      0.733289  
     104A      0.742748   105A      0.753877   106A      0.760559  
     107A      0.787404   108A      0.798460   109A      0.816021  
     110A      0.820345   111A      0.848485   112A      0.853581  
     113A      0.876833   114A      0.888426   115A      0.896658  
     116A      0.912403   117A      0.947846   118A      0.949697  
     119A      0.954375   120A      0.958362   121A      0.976147  
     122A      0.983144   123A      1.038196   124A      1.041547  
     125A      1.045437   126A      1.088819   127A      1.101839  
     128A      1.106657   129A      1.118367   130A      1.157520  
     131A      1.162803   132A      1.172141   133A      1.176359  
     134A      1.191138   135A      1.236033   136A      1.260877  
     137A      1.270467   138A      1.272187   139A      1.319230  
     140A      1.329821   141A      1.358181   142A      1.384313  
     143A      1.390440   144A      1.396504   145A      1.412451  
     146A      1.434878   147A      1.458606   148A      1.462795  
     149A      1.467892   150A      1.467976   151A      1.469776  
     152A      1.537785   153A      1.546014   154A      1.569536  
     155A      1.635048   156A      1.649915   157A      1.683965  
     158A      1.715101   159A      1.717702   160A      1.755800  
     161A      1.772884   162A      1.800226   163A      1.848039  
     164A      1.865503   165A      1.883139   166A      1.883811  
     167A      1.937288   168A      1.966454   169A      1.979453  
     170A      2.026298   171A      2.037642   172A      2.071034  
     173A      2.122848   174A      2.172049   175A      2.193137  
     176A      2.244771   177A      2.251148   178A      2.253643  
     179A      2.265229   180A      2.272354   181A      2.274245  
     182A      2.303265   183A      2.312246   184A      2.336869  
     185A      2.339401   186A      2.362426   187A      2.376818  
     188A      2.379604   189A      2.430330   190A      2.438663  
     191A      2.467448   192A      2.506154   193A      2.536303  
     194A      2.586271   195A      2.623585   196A      2.652307  
     197A      2.664983   198A      2.698621   199A      2.754650  
     200A      2.783681   201A      2.786491   202A      2.824508  
     203A      2.833647   204A      2.886121   205A      2.916316  
     206A      2.974291   207A      3.001602   208A      3.016316  
     209A      3.043030   210A      3.178935   211A      3.182749  
     212A      3.278929   213A      3.311029   214A      3.346124  
     215A      3.357212   216A      3.431832   217A      3.487043  
     218A      3.663125   219A      3.666705   220A      3.690423  
     221A      3.736441   222A      3.740458   223A      3.759662  
     224A      3.790324   225A      3.805251   226A      3.900417  
     227A      4.026453   228A      4.050368   229A      4.142340  
     230A      4.154093   231A      4.309953   232A      4.505308  
     233A      4.617290   234A      4.725299   235A      4.926290  
     236A      4.970125   237A      4.978422   238A      5.002032  
     239A      5.017269   240A      5.034162   241A      5.052869  
     242A      5.222386   243A      5.244582   244A      5.615667  
     245A      5.661642   246A      5.791749   247A      5.869423  
     248A      6.053196   249A      6.229234   250A      6.521229  
     251A      6.790705   252A      7.093373   253A     18.346654  
     254A     18.941155   255A     33.525912   256A     33.564036  

    Final Occupation by Irrep:
              A 
    DOCC [    16 ]

  @DF-RHF Final Energy:  -227.84408589536247

   => Energetics <=

    Nuclear Repulsion Energy =            121.7484302991578460
    One-Electron Energy =                -552.7483715957214372
    Two-Electron Energy =                 203.1558554012011086
    Total Energy =                       -227.8440858953624684

Computation Completed


Properties will be evaluated at   0.000000,   0.000000,   0.000000 [a0]

Properties computed using the SCF density matrix

  Nuclear Dipole Moment: [e a0]
     X:  -250.7246      Y:  -545.8076      Z:  -809.4945

  Electronic Dipole Moment: [e a0]
     X:   249.8965      Y:   545.5247      Z:   809.4113

  Dipole Moment: [e a0]
     X:    -0.8281      Y:    -0.2829      Z:    -0.0832     Total:     0.8790

  Dipole Moment: [D]
     X:    -2.1048      Y:    -0.7191      Z:    -0.2116     Total:     2.2342


*** tstop() called on ds1 at Wed Sep  1 13:10:49 2021
Module time:
	user time   =      10.93 seconds =       0.18 minutes
	system time =       0.39 seconds =       0.01 minutes
	total time  =          3 seconds =       0.05 minutes
Total time:
	user time   =      36.25 seconds =       0.60 minutes
	system time =       1.25 seconds =       0.02 minutes
	total time  =          8 seconds =       0.13 minutes
  Constructing Basis Sets for SAPT...

   => Loading Basis Set <=

    Name: (AUG-CC-PVDZ AUX)
    Role: RIFIT
    Keyword: DF_BASIS_SAPT
    atoms 1-2, 9-10  entry O          line   204 file /theoryfs2/ds/csargent/miniconda3/envs/cle/share/psi4/basis/aug-cc-pvdz-ri.gbs 
    atoms 3-6, 11-14 entry H          line    30 file /theoryfs2/ds/csargent/miniconda3/envs/cle/share/psi4/basis/aug-cc-pvdz-ri.gbs 
    atoms 7-8, 15-16 entry C          line   112 file /theoryfs2/ds/csargent/miniconda3/envs/cle/share/psi4/basis/aug-cc-pvdz-ri.gbs 


  //>>>>>>>>>>>>>>>>>>>>>>>>>>>>>>>>>>>//
  //               SAPT0               //
  //<<<<<<<<<<<<<<<<<<<<<<<<<<<<<<<<<<<//


*** tstart() called on ds1
*** at Wed Sep  1 13:10:49 2021

        SAPT0  
    Ed Hohenstein
     6 June 2009

      Orbital Information
  --------------------------
    NSO        =       256
    NMO        =       256
    NRI        =       760
    NOCC A     =        16
    NOCC B     =        16
    FOCC A     =         4
    FOCC B     =         4
    NVIR A     =       240
    NVIR B     =       240

    Elst10,r            =    -0.000020191899 [Eh]
    Exch10              =    -0.000000000000 [Eh]
    Exch10 (S^2)        =    -0.000000000000 [Eh]

    Iter     Energy [mEh]          dE [mEh]         Residual      Time [s]
       1      -0.00001430       0.000014297       0.041271028             0
       2      -0.00001397      -0.000000327       0.012554344             0
       3      -0.00001562       0.000001645       0.004613951             0
       4      -0.00001581       0.000000198       0.001657843             0
       5      -0.00001574      -0.000000072       0.000832137             0
       6      -0.00001572      -0.000000025       0.000199763             0
       7      -0.00001572       0.000000008       0.000051889             0
       8      -0.00001572       0.000000001       0.000011827             0
       9      -0.00001572      -0.000000000       0.000003415             0
      10      -0.00001572      -0.000000000       0.000000836             1

    CHF Iterations converged


    Iter     Energy [mEh]          dE [mEh]         Residual      Time [s]
       1      -0.00001207       0.000012069       0.033597281             0
       2      -0.00001211       0.000000042       0.011903870             0
       3      -0.00001345       0.000001340       0.003739606             0
       4      -0.00001362       0.000000171       0.001163713             0
       5      -0.00001357      -0.000000049       0.000649916             0
       6      -0.00001355      -0.000000019       0.000165745             0
       7      -0.00001356       0.000000007       0.000044279             0
       8      -0.00001356       0.000000001       0.000009788             0
       9      -0.00001356      -0.000000000       0.000002544             0
      10      -0.00001356      -0.000000000       0.000000697             0

    CHF Iterations converged

    Ind20,r (A<-B)      =    -0.000000015724 [Eh]
    Ind20,r (B<-A)      =    -0.000000013562 [Eh]
    Ind20,r             =    -0.000000029286 [Eh]
    Exch-Ind20,r (A<-B) =     0.000000000000 [Eh]
    Exch-Ind20,r (B<-A) =     0.000000000000 [Eh]
    Exch-Ind20,r        =     0.000000000000 [Eh]
    Disp20              =    -0.000000429751 [Eh]
    Disp20 (SS)         =    -0.000000214875 [Eh]
    Disp20 (OS)         =    -0.000000214875 [Eh]
    Exch-Disp20         =     0.000000000000 [Eh]
    Exch-Disp20 (SS)    =     0.000000000000 [Eh]
    Exch-Disp20 (OS)    =     0.000000000000 [Eh]

    SAPT Results 
  --------------------------------------------------------------------------------------------------------
    Electrostatics                 -0.02019190 [mEh]      -0.01267061 [kcal/mol]      -0.05301382 [kJ/mol]
      Elst10,r                     -0.02019190 [mEh]      -0.01267061 [kcal/mol]      -0.05301382 [kJ/mol]

    Exchange                       -0.00000000 [mEh]      -0.00000000 [kcal/mol]      -0.00000000 [kJ/mol]
      Exch10                       -0.00000000 [mEh]      -0.00000000 [kcal/mol]      -0.00000000 [kJ/mol]
      Exch10(S^2)                  -0.00000000 [mEh]      -0.00000000 [kcal/mol]      -0.00000000 [kJ/mol]

    Induction                      -0.00004690 [mEh]      -0.00002943 [kcal/mol]      -0.00012315 [kJ/mol]
      Ind20,r                      -0.00002929 [mEh]      -0.00001838 [kcal/mol]      -0.00007689 [kJ/mol]
      Exch-Ind20,r                  0.00000000 [mEh]       0.00000000 [kcal/mol]       0.00000000 [kJ/mol]
      delta HF,r (2)               -0.00001762 [mEh]      -0.00001106 [kcal/mol]      -0.00004626 [kJ/mol]

    Dispersion                     -0.00042975 [mEh]      -0.00026967 [kcal/mol]      -0.00112831 [kJ/mol]
      Disp20                       -0.00042975 [mEh]      -0.00026967 [kcal/mol]      -0.00112831 [kJ/mol]
      Exch-Disp20                   0.00000000 [mEh]       0.00000000 [kcal/mol]       0.00000000 [kJ/mol]
      Disp20 (SS)                  -0.00021488 [mEh]      -0.00013484 [kcal/mol]      -0.00056416 [kJ/mol]
      Disp20 (OS)                  -0.00021488 [mEh]      -0.00013484 [kcal/mol]      -0.00056416 [kJ/mol]
      Exch-Disp20 (SS)              0.00000000 [mEh]       0.00000000 [kcal/mol]       0.00000000 [kJ/mol]
      Exch-Disp20 (OS)              0.00000000 [mEh]       0.00000000 [kcal/mol]       0.00000000 [kJ/mol]

  Total HF                         -0.02023880 [mEh]      -0.01270004 [kcal/mol]      -0.05313697 [kJ/mol]
  Total SAPT0                      -0.02066855 [mEh]      -0.01296971 [kcal/mol]      -0.05426528 [kJ/mol]

  Special recipe for scaled SAPT0 (see Manual):
    Electrostatics sSAPT0          -0.02019190 [mEh]      -0.01267061 [kcal/mol]      -0.05301382 [kJ/mol]
    Exchange sSAPT0                -0.00000000 [mEh]      -0.00000000 [kcal/mol]      -0.00000000 [kJ/mol]
    Induction sSAPT0               -0.00004690 [mEh]      -0.00002943 [kcal/mol]      -0.00012315 [kJ/mol]
    Dispersion sSAPT0              -0.00042975 [mEh]      -0.00026967 [kcal/mol]      -0.00112831 [kJ/mol]
  Total sSAPT0                     -0.02066855 [mEh]      -0.01296971 [kcal/mol]      -0.05426528 [kJ/mol]
  --------------------------------------------------------------------------------------------------------

*** tstop() called on ds1 at Wed Sep  1 13:10:55 2021
Module time:
	user time   =      27.79 seconds =       0.46 minutes
	system time =       2.41 seconds =       0.04 minutes
	total time  =          6 seconds =       0.10 minutes
Total time:
	user time   =      65.05 seconds =       1.08 minutes
	system time =       3.70 seconds =       0.06 minutes
	total time  =         14 seconds =       0.23 minutes


Warning! sapt0 does not have an associated derived wavefunction.The returned wavefunction is the dimer SCF wavefunction.


    Psi4 stopped on: Wednesday, 01 September 2021 01:10PM
    Psi4 wall time for execution: 0:00:14.41

*** Psi4 exiting successfully. Buy a developer a beer!
