
    -----------------------------------------------------------------------
          Psi4: An Open-Source Ab Initio Electronic Structure Package
                               Psi4 1.4rc3 

                         Git: Rev {HEAD} 080dba6 


    D. G. A. Smith, L. A. Burns, A. C. Simmonett, R. M. Parrish,
    M. C. Schieber, R. Galvelis, P. Kraus, H. Kruse, R. Di Remigio,
    A. Alenaizan, A. M. James, S. Lehtola, J. P. Misiewicz, M. Scheurer,
    R. A. Shaw, J. B. Schriber, Y. Xie, Z. L. Glick, D. A. Sirianni,
    J. S. O'Brien, J. M. Waldrop, A. Kumar, E. G. Hohenstein,
    B. P. Pritchard, B. R. Brooks, H. F. Schaefer III, A. Yu. Sokolov,
    K. Patkowski, A. E. DePrince III, U. Bozkaya, R. A. King,
    F. A. Evangelista, J. M. Turney, T. D. Crawford, C. D. Sherrill,
    J. Chem. Phys. 152(18) 184108 (2020). https://doi.org/10.1063/5.0006002

                            Additional Code Authors
    E. T. Seidl, C. L. Janssen, E. F. Valeev, M. L. Leininger,
    J. F. Gonthier, R. M. Richard, H. R. McAlexander, M. Saitow, X. Wang,
    P. Verma, and M. H. Lechner

             Previous Authors, Complete List of Code Contributors,
                       and Citations for Specific Modules
    https://github.com/psi4/psi4/blob/master/codemeta.json
    https://github.com/psi4/psi4/graphs/contributors
    http://psicode.org/psi4manual/master/introduction.html#citing-psifour

    -----------------------------------------------------------------------


    Psi4 started on: Wednesday, 01 September 2021 01:35PM

    Process ID: 18987
    Host:       ds1
    PSIDATADIR: /theoryfs2/ds/csargent/miniconda3/envs/cle/share/psi4
    Memory:     500.0 MiB
    Threads:    6
    
  ==> Input File <==

--------------------------------------------------------------------------
# PSI4 file produced by CrystaLattE

# Generated from:               acetic_acid.xyz
# Psithon input for N-mer:      2mer-0+571
# Number of atoms per monomer:  [8, 8]
# Number of replicas:           2
# COM priority:                 1.352854510849e-05
# Minimum COM separations:      22.208 
# Separation priority:          2.115233103907e-05
# Minimum monomer separations:  19.134 
# Cutoff priority:              5.849844379232e-07
# Nuclear repulsion energy:     267.8701409025374

memory 7 GB

molecule Dimer_0_571 {
  O           -5.53102237       2.93940290       1.97762624 
  O           -2.40708886       0.90817734       0.04905909 
  H           -0.50304887       1.37579205       4.63880908 
  H            0.00000000       4.25104285       3.09072238 
  H           -2.38948215       4.01916779       5.40195041 
  H           -3.74771411       0.47147930      -1.21557512 
  C           -1.41859782       2.98500500       3.84405190 
  C           -3.32263781       2.28628814       1.91221413 
--
  O          -17.96136005       4.94434930     -36.17944022 
  O          -21.08529356       6.97557487     -38.10800738 
  H          -22.98933354       6.50796015     -33.51825739 
  H          -23.49238242       3.63270935     -35.06634408 
  H          -21.10290027       3.86458441     -32.75511606 
  H          -19.74466831       7.41227290     -39.37264158 
  C          -22.07378459       4.89874720     -34.31301457 
  C          -20.16974460       5.59746406     -36.24485234 
units = au
no_com
no_reorient
}

set {
  e_convergence 10
  d_convergence 10
  scf_type df
  mp2_type df
  cc_type df
  freeze_core true
}

energy('sapt0/aug-cc-pvdz')

--------------------------------------------------------------------------

  Memory set to   6.519 GiB by Python driver.

Scratch directory: /scratch/csargent/psi4.17562.33784/

Scratch directory: /scratch/csargent/psi4.17562.33784/

  //>>>>>>>>>>>>>>>>>>>>>>>>>>>>>>>>>>>//
  //              Dimer HF             //
  //<<<<<<<<<<<<<<<<<<<<<<<<<<<<<<<<<<<//


*** tstart() called on ds1
*** at Wed Sep  1 13:35:47 2021

   => Loading Basis Set <=

    Name: AUG-CC-PVDZ
    Role: ORBITAL
    Keyword: BASIS
    atoms 1-2, 9-10  entry O          line   254 file /theoryfs2/ds/csargent/miniconda3/envs/cle/share/psi4/basis/aug-cc-pvdz.gbs 
    atoms 3-6, 11-14 entry H          line    40 file /theoryfs2/ds/csargent/miniconda3/envs/cle/share/psi4/basis/aug-cc-pvdz.gbs 
    atoms 7-8, 15-16 entry C          line   182 file /theoryfs2/ds/csargent/miniconda3/envs/cle/share/psi4/basis/aug-cc-pvdz.gbs 


         ---------------------------------------------------------
                                   SCF
               by Justin Turney, Rob Parrish, Andy Simmonett
                          and Daniel G. A. Smith
                              RHF Reference
                        6 Threads,   6675 MiB Core
         ---------------------------------------------------------

  ==> Geometry <==

    Molecular point group: c1
    Full point group: C1

    Geometry (in Bohr), charge = 0, multiplicity = 1:

       Center              X                  Y                   Z               Mass       
    ------------   -----------------  -----------------  -----------------  -----------------
         O           -5.531022370000     2.939402900000     1.977626240000    15.994914619570
         O           -2.407088860000     0.908177340000     0.049059090000    15.994914619570
         H           -0.503048870000     1.375792050000     4.638809080000     1.007825032230
         H            0.000000000000     4.251042850000     3.090722380000     1.007825032230
         H           -2.389482150000     4.019167790000     5.401950410000     1.007825032230
         H           -3.747714110000     0.471479300000    -1.215575120000     1.007825032230
         C           -1.418597820000     2.985005000000     3.844051900000    12.000000000000
         C           -3.322637810000     2.286288140000     1.912214130000    12.000000000000
         O          -17.961360050000     4.944349300000   -36.179440220000    15.994914619570
         O          -21.085293560000     6.975574870000   -38.108007380000    15.994914619570
         H          -22.989333540000     6.507960150000   -33.518257390000     1.007825032230
         H          -23.492382420000     3.632709350000   -35.066344080000     1.007825032230
         H          -21.102900270000     3.864584410000   -32.755116060000     1.007825032230
         H          -19.744668310000     7.412272900000   -39.372641580000     1.007825032230
         C          -22.073784590000     4.898747200000   -34.313014570000    12.000000000000
         C          -20.169744600000     5.597464060000   -36.244852340000    12.000000000000

  Running in c1 symmetry.

  Rotational constants: A =      0.03952  B =      0.00057  C =      0.00056 [cm^-1]
  Rotational constants: A =   1184.77290  B =     17.02161  C =     16.81935 [MHz]
  Nuclear repulsion =  267.870140971356875

  Charge       = 0
  Multiplicity = 1
  Electrons    = 64
  Nalpha       = 32
  Nbeta        = 32

  ==> Algorithm <==

  SCF Algorithm Type is DF.
  DIIS enabled.
  MOM disabled.
  Fractional occupation disabled.
  Guess Type is SAD.
  Energy threshold   = 1.00e-10
  Density threshold  = 1.00e-10
  Integral threshold = 1.00e-12

  ==> Primary Basis <==

  Basis Set: AUG-CC-PVDZ
    Blend: AUG-CC-PVDZ
    Number of shells: 112
    Number of basis functions: 256
    Number of Cartesian functions: 272
    Spherical Harmonics?: true
    Max angular momentum: 2

   => Loading Basis Set <=

    Name: (AUG-CC-PVDZ AUX)
    Role: JKFIT
    Keyword: DF_BASIS_SCF
    atoms 1-2, 9-10  entry O          line   270 file /theoryfs2/ds/csargent/miniconda3/envs/cle/share/psi4/basis/aug-cc-pvdz-jkfit.gbs 
    atoms 3-6, 11-14 entry H          line    70 file /theoryfs2/ds/csargent/miniconda3/envs/cle/share/psi4/basis/aug-cc-pvdz-jkfit.gbs 
    atoms 7-8, 15-16 entry C          line   154 file /theoryfs2/ds/csargent/miniconda3/envs/cle/share/psi4/basis/aug-cc-pvdz-jkfit.gbs 

  ==> Integral Setup <==

  ==> DiskDFJK: Density-Fitted J/K Matrices <==

    J tasked:                  Yes
    K tasked:                  Yes
    wK tasked:                  No
    OpenMP threads:              6
    Integrals threads:           6
    Memory [MiB]:             5006
    Algorithm:                Core
    Integral Cache:           SAVE
    Schwarz Cutoff:          1E-12
    Fitting Condition:       1E-10

   => Auxiliary Basis Set <=

  Basis Set: (AUG-CC-PVDZ AUX)
    Blend: AUG-CC-PVDZ-JKFIT
    Number of shells: 320
    Number of basis functions: 944
    Number of Cartesian functions: 1088
    Spherical Harmonics?: true
    Max angular momentum: 3

  Minimum eigenvalue in the overlap matrix is 1.0277546688E-04.
  Reciprocal condition number of the overlap matrix is 9.6539167880E-06.
    Using symmetric orthogonalization.

  ==> Pre-Iterations <==

  SCF Guess: Superposition of Atomic Densities via on-the-fly atomic UHF (no occupation information).

   -------------------------
    Irrep   Nso     Nmo    
   -------------------------
     A        256     256 
   -------------------------
    Total     256     256
   -------------------------

  ==> Iterations <==

                           Total Energy        Delta E     RMS |[F,P]|

   @DF-RHF iter SAD:  -453.97985886344122   -4.53980e+02   0.00000e+00 
   @DF-RHF iter   1:  -455.36185053929756   -1.38199e+00   3.22734e-03 DIIS
   @DF-RHF iter   2:  -455.60185388203200   -2.40003e-01   1.87338e-03 DIIS
   @DF-RHF iter   3:  -455.68265245650099   -8.07986e-02   3.30281e-04 DIIS
   @DF-RHF iter   4:  -455.68712457717112   -4.47212e-03   1.46122e-04 DIIS
   @DF-RHF iter   5:  -455.68808609709163   -9.61520e-04   3.42384e-05 DIIS
   @DF-RHF iter   6:  -455.68816041276023   -7.43157e-05   1.66575e-05 DIIS
   @DF-RHF iter   7:  -455.68817998277802   -1.95700e-05   5.43337e-06 DIIS
   @DF-RHF iter   8:  -455.68818314506774   -3.16229e-06   1.43641e-06 DIIS
   @DF-RHF iter   9:  -455.68818337833585   -2.33268e-07   3.01180e-07 DIIS
   @DF-RHF iter  10:  -455.68818338597862   -7.64277e-09   7.94252e-08 DIIS
   @DF-RHF iter  11:  -455.68818338638579   -4.07169e-10   2.54773e-08 DIIS
   @DF-RHF iter  12:  -455.68818338642939   -4.35989e-11   6.03193e-09 DIIS
   @DF-RHF iter  13:  -455.68818338643280   -3.41061e-12   1.26513e-09 DIIS
   @DF-RHF iter  14:  -455.68818338643314   -3.41061e-13   4.10653e-10 DIIS
   @DF-RHF iter  15:  -455.68818338643285    2.84217e-13   1.57057e-10 DIIS
   @DF-RHF iter  16:  -455.68818338643291   -5.68434e-14   4.48153e-11 DIIS
  Energy and wave function converged.


  ==> Post-Iterations <==

    Orbital Energies [Eh]
    ---------------------

    Doubly Occupied:                                                      

       1A    -20.629385     2A    -20.629213     3A    -20.552715  
       4A    -20.552567     5A    -11.396016     6A    -11.395870  
       7A    -11.250861     8A    -11.250753     9A     -1.475762  
      10A     -1.475598    11A     -1.357398    12A     -1.357244  
      13A     -1.032889    14A     -1.032767    15A     -0.837832  
      16A     -0.837677    17A     -0.702977    18A     -0.702823  
      19A     -0.688364    20A     -0.688224    21A     -0.657649  
      22A     -0.657503    23A     -0.576441    24A     -0.576295  
      25A     -0.569588    26A     -0.569457    27A     -0.561289  
      28A     -0.561175    29A     -0.475258    30A     -0.475102  
      31A     -0.452344    32A     -0.452198  

    Virtual:                                                              

      33A      0.032330    34A      0.032490    35A      0.045733  
      36A      0.045918    37A      0.055230    38A      0.055324  
      39A      0.064763    40A      0.064823    41A      0.098885  
      42A      0.099001    43A      0.117421    44A      0.117565  
      45A      0.117958    46A      0.118102    47A      0.140640  
      48A      0.140798    49A      0.152101    50A      0.152233  
      51A      0.156481    52A      0.156569    53A      0.164682  
      54A      0.164811    55A      0.171426    56A      0.171554  
      57A      0.196412    58A      0.196543    59A      0.209326  
      60A      0.209521    61A      0.233473    62A      0.233634  
      63A      0.235061    64A      0.235203    65A      0.270957  
      66A      0.271073    67A      0.290363    68A      0.290520  
      69A      0.295918    70A      0.296047    71A      0.319926  
      72A      0.320096    73A      0.322863    74A      0.323013  
      75A      0.347385    76A      0.347510    77A      0.370741  
      78A      0.370883    79A      0.378988    80A      0.379110  
      81A      0.394218    82A      0.394357    83A      0.401532  
      84A      0.401668    85A      0.426803    86A      0.426940  
      87A      0.438334    88A      0.438453    89A      0.442124  
      90A      0.442245    91A      0.475647    92A      0.475813  
      93A      0.492474    94A      0.492597    95A      0.524881  
      96A      0.524994    97A      0.537359    98A      0.537483  
      99A      0.553602   100A      0.553728   101A      0.569855  
     102A      0.569968   103A      0.583906   104A      0.584020  
     105A      0.602198   106A      0.602362   107A      0.618338  
     108A      0.618474   109A      0.640418   110A      0.640554  
     111A      0.649410   112A      0.649539   113A      0.666820  
     114A      0.666945   115A      0.684314   116A      0.684446  
     117A      0.697292   118A      0.697422   119A      0.703687  
     120A      0.703798   121A      0.733395   122A      0.733526  
     123A      0.742853   124A      0.742980   125A      0.798577  
     126A      0.798686   127A      0.853683   128A      0.853826  
     129A      0.876922   130A      0.877075   131A      0.912497  
     132A      0.912645   133A      0.949798   134A      0.949940  
     135A      0.954475   136A      0.954620   137A      0.983242  
     138A      0.983388   139A      1.041645   140A      1.041793  
     141A      1.088931   142A      1.089049   143A      1.101952  
     144A      1.102069   145A      1.118475   146A      1.118599  
     147A      1.157611   148A      1.157774   149A      1.172239  
     150A      1.172391   151A      1.176460   152A      1.176600  
     153A      1.236133   154A      1.236288   155A      1.272276  
     156A      1.272427   157A      1.319315   158A      1.319466  
     159A      1.358270   160A      1.358418   161A      1.390532  
     162A      1.390670   163A      1.412558   164A      1.412682  
     165A      1.462879   166A      1.463038   167A      1.468064  
     168A      1.468230   169A      1.546124   170A      1.546246  
     171A      1.635146   172A      1.635294   173A      1.650015  
     174A      1.650159   175A      1.715201   176A      1.715343  
     177A      1.755904   178A      1.756037   179A      1.772996  
     180A      1.773113   181A      1.848134   182A      1.848274  
     183A      1.865613   184A      1.865739   185A      1.883930  
     186A      1.884038   187A      1.966554   188A      1.966706  
     189A      1.979546   190A      1.979696   191A      2.026405  
     192A      2.026533   193A      2.037741   194A      2.037888  
     195A      2.122947   196A      2.123092   197A      2.172155  
     198A      2.172292   199A      2.193242   200A      2.193376  
     201A      2.244883   202A      2.245002   203A      2.253748  
     204A      2.253883   205A      2.272452   206A      2.272590  
     207A      2.312349   208A      2.312489   209A      2.379715  
     210A      2.379839   211A      2.430430   212A      2.430580  
     213A      2.438772   214A      2.438899   215A      2.536410  
     216A      2.536537   217A      2.623685   218A      2.623824  
     219A      2.652422   220A      2.652533   221A      2.783789  
     222A      2.783914   223A      2.833752   224A      2.833886  
     225A      2.886232   226A      2.886354   227A      2.974394  
     228A      2.974540   229A      3.001713   230A      3.001839  
     231A      3.016419   232A      3.016556   233A      3.179033  
     234A      3.179182   235A      3.346217   236A      3.346365  
     237A      3.666796   238A      3.666965   239A      3.690514  
     240A      3.690684   241A      3.736530   242A      3.736692  
     243A      3.759748   244A      3.759901   245A      3.790411  
     246A      3.790568   247A      3.805337   248A      3.805490  
     249A      3.900505   250A      3.900667   251A      4.050456  
     252A      4.050612   253A      4.142426   254A      4.142582  
     255A      4.310045   256A      4.310214  

    Final Occupation by Irrep:
              A 
    DOCC [    32 ]

  @DF-RHF Final Energy:  -455.68818338643291

   => Energetics <=

    Nuclear Repulsion Energy =            267.8701409713568751
    One-Electron Energy =               -1154.2541826224239685
    Two-Electron Energy =                 430.6958582646341256
    Total Energy =                       -455.6881833864329110

Computation Completed


Properties will be evaluated at   0.000000,   0.000000,   0.000000 [a0]

Properties computed using the SCF density matrix

  Nuclear Dipole Moment: [e a0]
     X:  -751.7562      Y:   252.2801      Z: -1095.6922

  Electronic Dipole Moment: [e a0]
     X:   751.7561      Y:  -252.2801      Z:  1095.5254

  Dipole Moment: [e a0]
     X:    -0.0001      Y:     0.0000      Z:    -0.1667     Total:     0.1667

  Dipole Moment: [D]
     X:    -0.0003      Y:     0.0000      Z:    -0.4237     Total:     0.4237


*** tstop() called on ds1 at Wed Sep  1 13:35:50 2021
Module time:
	user time   =      14.14 seconds =       0.24 minutes
	system time =       0.40 seconds =       0.01 minutes
	total time  =          3 seconds =       0.05 minutes
Total time:
	user time   =      14.14 seconds =       0.24 minutes
	system time =       0.40 seconds =       0.01 minutes
	total time  =          3 seconds =       0.05 minutes

  //>>>>>>>>>>>>>>>>>>>>>>>>>>>>>>>>>>>//
  //            Monomer A HF           //
  //<<<<<<<<<<<<<<<<<<<<<<<<<<<<<<<<<<<//


*** tstart() called on ds1
*** at Wed Sep  1 13:35:50 2021

   => Loading Basis Set <=

    Name: AUG-CC-PVDZ
    Role: ORBITAL
    Keyword: BASIS
    atoms 1-2, 9-10  entry O          line   254 file /theoryfs2/ds/csargent/miniconda3/envs/cle/share/psi4/basis/aug-cc-pvdz.gbs 
    atoms 3-6, 11-14 entry H          line    40 file /theoryfs2/ds/csargent/miniconda3/envs/cle/share/psi4/basis/aug-cc-pvdz.gbs 
    atoms 7-8, 15-16 entry C          line   182 file /theoryfs2/ds/csargent/miniconda3/envs/cle/share/psi4/basis/aug-cc-pvdz.gbs 


         ---------------------------------------------------------
                                   SCF
               by Justin Turney, Rob Parrish, Andy Simmonett
                          and Daniel G. A. Smith
                              RHF Reference
                        6 Threads,   6675 MiB Core
         ---------------------------------------------------------

  ==> Geometry <==

    Molecular point group: c1
    Full point group: C1

    Geometry (in Bohr), charge = 0, multiplicity = 1:

       Center              X                  Y                   Z               Mass       
    ------------   -----------------  -----------------  -----------------  -----------------
         O           -5.531022370000     2.939402900000     1.977626240000    15.994914619570
         O           -2.407088860000     0.908177340000     0.049059090000    15.994914619570
         H           -0.503048870000     1.375792050000     4.638809080000     1.007825032230
         H            0.000000000000     4.251042850000     3.090722380000     1.007825032230
         H           -2.389482150000     4.019167790000     5.401950410000     1.007825032230
         H           -3.747714110000     0.471479300000    -1.215575120000     1.007825032230
         C           -1.418597820000     2.985005000000     3.844051900000    12.000000000000
         C           -3.322637810000     2.286288140000     1.912214130000    12.000000000000
      Gh(O)         -17.961360050000     4.944349300000   -36.179440220000    15.994914619570
      Gh(O)         -21.085293560000     6.975574870000   -38.108007380000    15.994914619570
      Gh(H)         -22.989333540000     6.507960150000   -33.518257390000     1.007825032230
      Gh(H)         -23.492382420000     3.632709350000   -35.066344080000     1.007825032230
      Gh(H)         -21.102900270000     3.864584410000   -32.755116060000     1.007825032230
      Gh(H)         -19.744668310000     7.412272900000   -39.372641580000     1.007825032230
      Gh(C)         -22.073784590000     4.898747200000   -34.313014570000    12.000000000000
      Gh(C)         -20.169744600000     5.597464060000   -36.244852340000    12.000000000000

  Running in c1 symmetry.

  Rotational constants: A =      0.03952  B =      0.00057  C =      0.00056 [cm^-1]
  Rotational constants: A =   1184.77290  B =     17.02161  C =     16.81935 [MHz]
  Nuclear repulsion =  121.748430210971620

  Charge       = 0
  Multiplicity = 1
  Electrons    = 32
  Nalpha       = 16
  Nbeta        = 16

  ==> Algorithm <==

  SCF Algorithm Type is DF.
  DIIS enabled.
  MOM disabled.
  Fractional occupation disabled.
  Guess Type is SAD.
  Energy threshold   = 1.00e-10
  Density threshold  = 1.00e-10
  Integral threshold = 1.00e-12

  ==> Primary Basis <==

  Basis Set: AUG-CC-PVDZ
    Blend: AUG-CC-PVDZ
    Number of shells: 112
    Number of basis functions: 256
    Number of Cartesian functions: 272
    Spherical Harmonics?: true
    Max angular momentum: 2

   => Loading Basis Set <=

    Name: (AUG-CC-PVDZ AUX)
    Role: JKFIT
    Keyword: DF_BASIS_SCF
    atoms 1-2, 9-10  entry O          line   270 file /theoryfs2/ds/csargent/miniconda3/envs/cle/share/psi4/basis/aug-cc-pvdz-jkfit.gbs 
    atoms 3-6, 11-14 entry H          line    70 file /theoryfs2/ds/csargent/miniconda3/envs/cle/share/psi4/basis/aug-cc-pvdz-jkfit.gbs 
    atoms 7-8, 15-16 entry C          line   154 file /theoryfs2/ds/csargent/miniconda3/envs/cle/share/psi4/basis/aug-cc-pvdz-jkfit.gbs 

  ==> Integral Setup <==

  ==> DiskDFJK: Density-Fitted J/K Matrices <==

    J tasked:                  Yes
    K tasked:                  Yes
    wK tasked:                  No
    OpenMP threads:              6
    Integrals threads:           6
    Memory [MiB]:             5006
    Algorithm:                Core
    Integral Cache:           LOAD
    Schwarz Cutoff:          1E-12
    Fitting Condition:       1E-10

   => Auxiliary Basis Set <=

  Basis Set: (AUG-CC-PVDZ AUX)
    Blend: AUG-CC-PVDZ-JKFIT
    Number of shells: 320
    Number of basis functions: 944
    Number of Cartesian functions: 1088
    Spherical Harmonics?: true
    Max angular momentum: 3

  Minimum eigenvalue in the overlap matrix is 1.0277546688E-04.
  Reciprocal condition number of the overlap matrix is 9.6539167880E-06.
    Using symmetric orthogonalization.

  ==> Pre-Iterations <==

  SCF Guess: Superposition of Atomic Densities via on-the-fly atomic UHF (no occupation information).

   -------------------------
    Irrep   Nso     Nmo    
   -------------------------
     A        256     256 
   -------------------------
    Total     256     256
   -------------------------

  ==> Iterations <==

                           Total Energy        Delta E     RMS |[F,P]|

   @DF-RHF iter SAD:  -226.98992942877979   -2.26990e+02   0.00000e+00 
   @DF-RHF iter   1:  -227.68091168163622   -6.90982e-01   2.28211e-03 DIIS
   @DF-RHF iter   2:  -227.80091445460761   -1.20003e-01   1.32478e-03 DIIS
   @DF-RHF iter   3:  -227.84131987384936   -4.04054e-02   2.33581e-04 DIIS
   @DF-RHF iter   4:  -227.84355633740159   -2.23646e-03   1.03339e-04 DIIS
   @DF-RHF iter   5:  -227.84403723840677   -4.80901e-04   2.42136e-05 DIIS
   @DF-RHF iter   6:  -227.84407440640496   -3.71680e-05   1.17797e-05 DIIS
   @DF-RHF iter   7:  -227.84408419453115   -9.78813e-06   3.84272e-06 DIIS
   @DF-RHF iter   8:  -227.84408577611782   -1.58159e-06   1.01577e-06 DIIS
   @DF-RHF iter   9:  -227.84408589276785   -1.16650e-07   2.12954e-07 DIIS
   @DF-RHF iter  10:  -227.84408589658867   -3.82082e-09   5.61608e-08 DIIS
   @DF-RHF iter  11:  -227.84408589679222   -2.03556e-10   1.80147e-08 DIIS
   @DF-RHF iter  12:  -227.84408589681442   -2.21974e-11   4.26466e-09 DIIS
   @DF-RHF iter  13:  -227.84408589681590   -1.47793e-12   8.93569e-10 DIIS
   @DF-RHF iter  14:  -227.84408589681578    1.13687e-13   2.86710e-10 DIIS
   @DF-RHF iter  15:  -227.84408589681584   -5.68434e-14   1.08058e-10 DIIS
   @DF-RHF iter  16:  -227.84408589681590   -5.68434e-14   2.86096e-11 DIIS
  Energy and wave function converged.


  ==> Post-Iterations <==

    Orbital Energies [Eh]
    ---------------------

    Doubly Occupied:                                                      

       1A    -20.629476     2A    -20.552804     3A    -11.396108  
       4A    -11.250979     5A     -1.475853     6A     -1.357486  
       7A     -1.032999     8A     -0.837930     9A     -0.703065  
      10A     -0.688465    11A     -0.657749    12A     -0.576538  
      13A     -0.569697    14A     -0.561403    15A     -0.475343  
      16A     -0.452434  

    Virtual:                                                              

      17A      0.024880    18A      0.032214    19A      0.045627  
      20A      0.046939    21A      0.055084    22A      0.055686  
      23A      0.056614    24A      0.064645    25A      0.085498  
      26A      0.098769    27A      0.104704    28A      0.112303  
      29A      0.117323    30A      0.117505    31A      0.117857  
      32A      0.140487    33A      0.140545    34A      0.141483  
      35A      0.146979    36A      0.151976    37A      0.156356  
      38A      0.164577    39A      0.171320    40A      0.176475  
      41A      0.196303    42A      0.205723    43A      0.209237  
      44A      0.214697    45A      0.226391    46A      0.233376  
      47A      0.234963    48A      0.244140    49A      0.260355  
      50A      0.264909    51A      0.270849    52A      0.276757  
      53A      0.285542    54A      0.290295    55A      0.295802  
      56A      0.319834    57A      0.322781    58A      0.332402  
      59A      0.336372    60A      0.347275    61A      0.369568  
      62A      0.370652    63A      0.378870    64A      0.394119  
      65A      0.399422    66A      0.401429    67A      0.409909  
      68A      0.426690    69A      0.431268    70A      0.438040  
      71A      0.438218    72A      0.442006    73A      0.460552  
      74A      0.475555    75A      0.490345    76A      0.492357  
      77A      0.497406    78A      0.516635    79A      0.524763  
      80A      0.537262    81A      0.541869    82A      0.543702  
      83A      0.553487    84A      0.559757    85A      0.569740  
      86A      0.583791    87A      0.586935    88A      0.602101  
      89A      0.616428    90A      0.618231    91A      0.636368  
      92A      0.637180    93A      0.640311    94A      0.649301  
      95A      0.666705    96A      0.675248    97A      0.684210  
      98A      0.690070    99A      0.697190   100A      0.700943  
     101A      0.703571   102A      0.728253   103A      0.733289  
     104A      0.742748   105A      0.753758   106A      0.760447  
     107A      0.787277   108A      0.798460   109A      0.815907  
     110A      0.820235   111A      0.848360   112A      0.853581  
     113A      0.876833   114A      0.888323   115A      0.896527  
     116A      0.912403   117A      0.947731   118A      0.949697  
     119A      0.954375   120A      0.958238   121A      0.976021  
     122A      0.983144   123A      1.038067   124A      1.041547  
     125A      1.045305   126A      1.088819   127A      1.101839  
     128A      1.106529   129A      1.118367   130A      1.157520  
     131A      1.162668   132A      1.172141   133A      1.176359  
     134A      1.190986   135A      1.236033   136A      1.260737  
     137A      1.270331   138A      1.272187   139A      1.319230  
     140A      1.329674   141A      1.358181   142A      1.384185  
     143A      1.390440   144A      1.396356   145A      1.412451  
     146A      1.434761   147A      1.458449   148A      1.462795  
     149A      1.467747   150A      1.467976   151A      1.469623  
     152A      1.537646   153A      1.546014   154A      1.569397  
     155A      1.635048   156A      1.649915   157A      1.683816  
     158A      1.715101   159A      1.717576   160A      1.755800  
     161A      1.772884   162A      1.800085   163A      1.848039  
     164A      1.865503   165A      1.883031   166A      1.883811  
     167A      1.937176   168A      1.966454   169A      1.979453  
     170A      2.026298   171A      2.037642   172A      2.070918  
     173A      2.122848   174A      2.172049   175A      2.193137  
     176A      2.244771   177A      2.251053   178A      2.253643  
     179A      2.265114   180A      2.272354   181A      2.274088  
     182A      2.303147   183A      2.312246   184A      2.336761  
     185A      2.339290   186A      2.362295   187A      2.376688  
     188A      2.379604   189A      2.430330   190A      2.438663  
     191A      2.467306   192A      2.505990   193A      2.536303  
     194A      2.586140   195A      2.623585   196A      2.652307  
     197A      2.664845   198A      2.698499   199A      2.754534  
     200A      2.783681   201A      2.786382   202A      2.824395  
     203A      2.833647   204A      2.886121   205A      2.916172  
     206A      2.974291   207A      3.001602   208A      3.016316  
     209A      3.042905   210A      3.178935   211A      3.182635  
     212A      3.278809   213A      3.310908   214A      3.346124  
     215A      3.357095   216A      3.431714   217A      3.486932  
     218A      3.663002   219A      3.666705   220A      3.690423  
     221A      3.736441   222A      3.740302   223A      3.759662  
     224A      3.790324   225A      3.805251   226A      3.900417  
     227A      4.026337   228A      4.050368   229A      4.142340  
     230A      4.153913   231A      4.309953   232A      4.505186  
     233A      4.617139   234A      4.725182   235A      4.926160  
     236A      4.969999   237A      4.978259   238A      5.001917  
     239A      5.017118   240A      5.033997   241A      5.052755  
     242A      5.222270   243A      5.244469   244A      5.615486  
     245A      5.661484   246A      5.791595   247A      5.869304  
     248A      6.053066   249A      6.229120   250A      6.521057  
     251A      6.790546   252A      7.093237   253A     18.346536  
     254A     18.941035   255A     33.525804   256A     33.563855  

    Final Occupation by Irrep:
              A 
    DOCC [    16 ]

  @DF-RHF Final Energy:  -227.84408589681590

   => Energetics <=

    Nuclear Repulsion Energy =            121.7484302109716197
    One-Electron Energy =                -552.7483714465189450
    Two-Electron Energy =                 203.1558553387314419
    Total Energy =                       -227.8440858968158977

Computation Completed


Properties will be evaluated at   0.000000,   0.000000,   0.000000 [a0]

Properties computed using the SCF density matrix

  Nuclear Dipole Moment: [e a0]
     X:   -98.5925      Y:    72.5259      Z:    62.6670

  Electronic Dipole Moment: [e a0]
     X:    99.4206      Y:   -72.8088      Z:   -62.7502

  Dipole Moment: [e a0]
     X:     0.8281      Y:    -0.2829      Z:    -0.0832     Total:     0.8790

  Dipole Moment: [D]
     X:     2.1048      Y:    -0.7191      Z:    -0.2116     Total:     2.2342


*** tstop() called on ds1 at Wed Sep  1 13:35:52 2021
Module time:
	user time   =      10.27 seconds =       0.17 minutes
	system time =       0.18 seconds =       0.00 minutes
	total time  =          2 seconds =       0.03 minutes
Total time:
	user time   =      24.58 seconds =       0.41 minutes
	system time =       0.59 seconds =       0.01 minutes
	total time  =          5 seconds =       0.08 minutes

  //>>>>>>>>>>>>>>>>>>>>>>>>>>>>>>>>>>>//
  //            Monomer B HF           //
  //<<<<<<<<<<<<<<<<<<<<<<<<<<<<<<<<<<<//


*** tstart() called on ds1
*** at Wed Sep  1 13:35:52 2021

   => Loading Basis Set <=

    Name: AUG-CC-PVDZ
    Role: ORBITAL
    Keyword: BASIS
    atoms 1-2, 9-10  entry O          line   254 file /theoryfs2/ds/csargent/miniconda3/envs/cle/share/psi4/basis/aug-cc-pvdz.gbs 
    atoms 3-6, 11-14 entry H          line    40 file /theoryfs2/ds/csargent/miniconda3/envs/cle/share/psi4/basis/aug-cc-pvdz.gbs 
    atoms 7-8, 15-16 entry C          line   182 file /theoryfs2/ds/csargent/miniconda3/envs/cle/share/psi4/basis/aug-cc-pvdz.gbs 


         ---------------------------------------------------------
                                   SCF
               by Justin Turney, Rob Parrish, Andy Simmonett
                          and Daniel G. A. Smith
                              RHF Reference
                        6 Threads,   6675 MiB Core
         ---------------------------------------------------------

  ==> Geometry <==

    Molecular point group: c1
    Full point group: C1

    Geometry (in Bohr), charge = 0, multiplicity = 1:

       Center              X                  Y                   Z               Mass       
    ------------   -----------------  -----------------  -----------------  -----------------
      Gh(O)          -5.531022370000     2.939402900000     1.977626240000    15.994914619570
      Gh(O)          -2.407088860000     0.908177340000     0.049059090000    15.994914619570
      Gh(H)          -0.503048870000     1.375792050000     4.638809080000     1.007825032230
      Gh(H)           0.000000000000     4.251042850000     3.090722380000     1.007825032230
      Gh(H)          -2.389482150000     4.019167790000     5.401950410000     1.007825032230
      Gh(H)          -3.747714110000     0.471479300000    -1.215575120000     1.007825032230
      Gh(C)          -1.418597820000     2.985005000000     3.844051900000    12.000000000000
      Gh(C)          -3.322637810000     2.286288140000     1.912214130000    12.000000000000
         O          -17.961360050000     4.944349300000   -36.179440220000    15.994914619570
         O          -21.085293560000     6.975574870000   -38.108007380000    15.994914619570
         H          -22.989333540000     6.507960150000   -33.518257390000     1.007825032230
         H          -23.492382420000     3.632709350000   -35.066344080000     1.007825032230
         H          -21.102900270000     3.864584410000   -32.755116060000     1.007825032230
         H          -19.744668310000     7.412272900000   -39.372641580000     1.007825032230
         C          -22.073784590000     4.898747200000   -34.313014570000    12.000000000000
         C          -20.169744600000     5.597464060000   -36.244852340000    12.000000000000

  Running in c1 symmetry.

  Rotational constants: A =      0.03952  B =      0.00057  C =      0.00056 [cm^-1]
  Rotational constants: A =   1184.77290  B =     17.02161  C =     16.81935 [MHz]
  Nuclear repulsion =  121.748430241219594

  Charge       = 0
  Multiplicity = 1
  Electrons    = 32
  Nalpha       = 16
  Nbeta        = 16

  ==> Algorithm <==

  SCF Algorithm Type is DF.
  DIIS enabled.
  MOM disabled.
  Fractional occupation disabled.
  Guess Type is SAD.
  Energy threshold   = 1.00e-10
  Density threshold  = 1.00e-10
  Integral threshold = 1.00e-12

  ==> Primary Basis <==

  Basis Set: AUG-CC-PVDZ
    Blend: AUG-CC-PVDZ
    Number of shells: 112
    Number of basis functions: 256
    Number of Cartesian functions: 272
    Spherical Harmonics?: true
    Max angular momentum: 2

   => Loading Basis Set <=

    Name: (AUG-CC-PVDZ AUX)
    Role: JKFIT
    Keyword: DF_BASIS_SCF
    atoms 1-2, 9-10  entry O          line   270 file /theoryfs2/ds/csargent/miniconda3/envs/cle/share/psi4/basis/aug-cc-pvdz-jkfit.gbs 
    atoms 3-6, 11-14 entry H          line    70 file /theoryfs2/ds/csargent/miniconda3/envs/cle/share/psi4/basis/aug-cc-pvdz-jkfit.gbs 
    atoms 7-8, 15-16 entry C          line   154 file /theoryfs2/ds/csargent/miniconda3/envs/cle/share/psi4/basis/aug-cc-pvdz-jkfit.gbs 

  ==> Integral Setup <==

  ==> DiskDFJK: Density-Fitted J/K Matrices <==

    J tasked:                  Yes
    K tasked:                  Yes
    wK tasked:                  No
    OpenMP threads:              6
    Integrals threads:           6
    Memory [MiB]:             5006
    Algorithm:                Core
    Integral Cache:           LOAD
    Schwarz Cutoff:          1E-12
    Fitting Condition:       1E-10

   => Auxiliary Basis Set <=

  Basis Set: (AUG-CC-PVDZ AUX)
    Blend: AUG-CC-PVDZ-JKFIT
    Number of shells: 320
    Number of basis functions: 944
    Number of Cartesian functions: 1088
    Spherical Harmonics?: true
    Max angular momentum: 3

  Minimum eigenvalue in the overlap matrix is 1.0277546688E-04.
  Reciprocal condition number of the overlap matrix is 9.6539167880E-06.
    Using symmetric orthogonalization.

  ==> Pre-Iterations <==

  SCF Guess: Superposition of Atomic Densities via on-the-fly atomic UHF (no occupation information).

   -------------------------
    Irrep   Nso     Nmo    
   -------------------------
     A        256     256 
   -------------------------
    Total     256     256
   -------------------------

  ==> Iterations <==

                           Total Energy        Delta E     RMS |[F,P]|

   @DF-RHF iter SAD:  -226.98992943376328   -2.26990e+02   0.00000e+00 
   @DF-RHF iter   1:  -227.68091168186760   -6.90982e-01   2.28211e-03 DIIS
   @DF-RHF iter   2:  -227.80091445502248   -1.20003e-01   1.32478e-03 DIIS
   @DF-RHF iter   3:  -227.84131987382472   -4.04054e-02   2.33581e-04 DIIS
   @DF-RHF iter   4:  -227.84355633733858   -2.23646e-03   1.03339e-04 DIIS
   @DF-RHF iter   5:  -227.84403723833589   -4.80901e-04   2.42136e-05 DIIS
   @DF-RHF iter   6:  -227.84407440633296   -3.71680e-05   1.17797e-05 DIIS
   @DF-RHF iter   7:  -227.84408419445893   -9.78813e-06   3.84272e-06 DIIS
   @DF-RHF iter   8:  -227.84408577604572   -1.58159e-06   1.01577e-06 DIIS
   @DF-RHF iter   9:  -227.84408589269600   -1.16650e-07   2.12953e-07 DIIS
   @DF-RHF iter  10:  -227.84408589651653   -3.82053e-09   5.61608e-08 DIIS
   @DF-RHF iter  11:  -227.84408589671989   -2.03357e-10   1.80147e-08 DIIS
   @DF-RHF iter  12:  -227.84408589674251   -2.26237e-11   4.26466e-09 DIIS
   @DF-RHF iter  13:  -227.84408589674368   -1.16529e-12   8.93569e-10 DIIS
   @DF-RHF iter  14:  -227.84408589674365    2.84217e-14   2.86710e-10 DIIS
   @DF-RHF iter  15:  -227.84408589674359    5.68434e-14   1.08059e-10 DIIS
   @DF-RHF iter  16:  -227.84408589674354    5.68434e-14   2.86100e-11 DIIS
  Energy and wave function converged.


  ==> Post-Iterations <==

    Orbital Energies [Eh]
    ---------------------

    Doubly Occupied:                                                      

       1A    -20.629476     2A    -20.552804     3A    -11.396108  
       4A    -11.250979     5A     -1.475853     6A     -1.357486  
       7A     -1.032999     8A     -0.837930     9A     -0.703065  
      10A     -0.688465    11A     -0.657749    12A     -0.576538  
      13A     -0.569697    14A     -0.561403    15A     -0.475343  
      16A     -0.452434  

    Virtual:                                                              

      17A      0.025012    18A      0.032214    19A      0.045627  
      20A      0.047125    21A      0.055084    22A      0.055778  
      23A      0.056720    24A      0.064645    25A      0.085661  
      26A      0.098769    27A      0.104849    28A      0.112429  
      29A      0.117323    30A      0.117580    31A      0.117857  
      32A      0.140545    33A      0.140628    34A      0.141609  
      35A      0.147069    36A      0.151976    37A      0.156356  
      38A      0.164577    39A      0.171320    40A      0.176619  
      41A      0.196303    42A      0.205890    43A      0.209237  
      44A      0.214863    45A      0.226561    46A      0.233376  
      47A      0.234963    48A      0.244290    49A      0.260503  
      50A      0.265068    51A      0.270849    52A      0.276916  
      53A      0.285697    54A      0.290295    55A      0.295802  
      56A      0.319834    57A      0.322781    58A      0.332522  
      59A      0.336472    60A      0.347275    61A      0.369671  
      62A      0.370652    63A      0.378870    64A      0.394119  
      65A      0.399521    66A      0.401429    67A      0.410013  
      68A      0.426690    69A      0.431386    70A      0.438154  
      71A      0.438218    72A      0.442006    73A      0.460741  
      74A      0.475555    75A      0.490496    76A      0.492357  
      77A      0.497556    78A      0.516787    79A      0.524763  
      80A      0.537262    81A      0.542050    82A      0.543815  
      83A      0.553487    84A      0.559887    85A      0.569740  
      86A      0.583791    87A      0.587048    88A      0.602101  
      89A      0.616582    90A      0.618231    91A      0.636497  
      92A      0.637321    93A      0.640311    94A      0.649301  
      95A      0.666705    96A      0.675388    97A      0.684210  
      98A      0.690188    99A      0.697190   100A      0.701058  
     101A      0.703571   102A      0.728355   103A      0.733289  
     104A      0.742748   105A      0.753889   106A      0.760552  
     107A      0.787399   108A      0.798460   109A      0.816011  
     110A      0.820340   111A      0.848476   112A      0.853581  
     113A      0.876833   114A      0.888431   115A      0.896662  
     116A      0.912403   117A      0.947858   118A      0.949697  
     119A      0.954375   120A      0.958366   121A      0.976157  
     122A      0.983144   123A      1.038214   124A      1.041547  
     125A      1.045454   126A      1.088819   127A      1.101839  
     128A      1.106670   129A      1.118367   130A      1.157520  
     131A      1.162826   132A      1.172141   133A      1.176359  
     134A      1.191149   135A      1.236033   136A      1.260907  
     137A      1.270499   138A      1.272187   139A      1.319230  
     140A      1.329836   141A      1.358181   142A      1.384349  
     143A      1.390440   144A      1.396524   145A      1.412451  
     146A      1.434915   147A      1.458626   148A      1.462795  
     149A      1.467913   150A      1.467976   151A      1.469792  
     152A      1.537807   153A      1.546014   154A      1.569559  
     155A      1.635048   156A      1.649915   157A      1.683975  
     158A      1.715101   159A      1.717729   160A      1.755800  
     161A      1.772884   162A      1.800248   163A      1.848039  
     164A      1.865503   165A      1.883121   166A      1.883811  
     167A      1.937281   168A      1.966454   169A      1.979453  
     170A      2.026298   171A      2.037642   172A      2.071032  
     173A      2.122848   174A      2.172049   175A      2.193137  
     176A      2.244771   177A      2.251148   178A      2.253643  
     179A      2.265213   180A      2.272354   181A      2.274254  
     182A      2.303254   183A      2.312246   184A      2.336858  
     185A      2.339386   186A      2.362417   187A      2.376827  
     188A      2.379604   189A      2.430330   190A      2.438663  
     191A      2.467459   192A      2.506167   193A      2.536303  
     194A      2.586279   195A      2.623585   196A      2.652307  
     197A      2.664990   198A      2.698612   199A      2.754642  
     200A      2.783681   201A      2.786492   202A      2.824506  
     203A      2.833647   204A      2.886121   205A      2.916317  
     206A      2.974291   207A      3.001602   208A      3.016316  
     209A      3.043032   210A      3.178935   211A      3.182752  
     212A      3.278921   213A      3.311030   214A      3.346124  
     215A      3.357212   216A      3.431845   217A      3.487040  
     218A      3.663135   219A      3.666705   220A      3.690423  
     221A      3.736441   222A      3.740470   223A      3.759662  
     224A      3.790324   225A      3.805251   226A      3.900417  
     227A      4.026483   228A      4.050368   229A      4.142340  
     230A      4.154100   231A      4.309953   232A      4.505345  
     233A      4.617305   234A      4.725305   235A      4.926325  
     236A      4.970159   237A      4.978434   238A      5.002078  
     239A      5.017286   240A      5.034170   241A      5.052867  
     242A      5.222407   243A      5.244591   244A      5.615668  
     245A      5.661656   246A      5.791770   247A      5.869461  
     248A      6.053228   249A      6.229278   250A      6.521236  
     251A      6.790721   252A      7.093402   253A     18.346656  
     254A     18.941161   255A     33.525962   256A     33.564039  

    Final Occupation by Irrep:
              A 
    DOCC [    16 ]

  @DF-RHF Final Energy:  -227.84408589674354

   => Energetics <=

    Nuclear Repulsion Energy =            121.7484302412195944
    One-Electron Energy =                -552.7483714906895784
    Two-Electron Energy =                 203.1558553527264621
    Total Energy =                       -227.8440858967435361

Computation Completed


Properties will be evaluated at   0.000000,   0.000000,   0.000000 [a0]

Properties computed using the SCF density matrix

  Nuclear Dipole Moment: [e a0]
     X:  -653.1637      Y:   179.7542      Z: -1158.3591

  Electronic Dipole Moment: [e a0]
     X:   652.3356      Y:  -179.4713      Z:  1158.2759

  Dipole Moment: [e a0]
     X:    -0.8281      Y:     0.2829      Z:    -0.0832     Total:     0.8790

  Dipole Moment: [D]
     X:    -2.1048      Y:     0.7191      Z:    -0.2116     Total:     2.2342


*** tstop() called on ds1 at Wed Sep  1 13:35:55 2021
Module time:
	user time   =      10.31 seconds =       0.17 minutes
	system time =       0.16 seconds =       0.00 minutes
	total time  =          3 seconds =       0.05 minutes
Total time:
	user time   =      35.11 seconds =       0.59 minutes
	system time =       0.76 seconds =       0.01 minutes
	total time  =          8 seconds =       0.13 minutes
  Constructing Basis Sets for SAPT...

   => Loading Basis Set <=

    Name: (AUG-CC-PVDZ AUX)
    Role: RIFIT
    Keyword: DF_BASIS_SAPT
    atoms 1-2, 9-10  entry O          line   204 file /theoryfs2/ds/csargent/miniconda3/envs/cle/share/psi4/basis/aug-cc-pvdz-ri.gbs 
    atoms 3-6, 11-14 entry H          line    30 file /theoryfs2/ds/csargent/miniconda3/envs/cle/share/psi4/basis/aug-cc-pvdz-ri.gbs 
    atoms 7-8, 15-16 entry C          line   112 file /theoryfs2/ds/csargent/miniconda3/envs/cle/share/psi4/basis/aug-cc-pvdz-ri.gbs 


  //>>>>>>>>>>>>>>>>>>>>>>>>>>>>>>>>>>>//
  //               SAPT0               //
  //<<<<<<<<<<<<<<<<<<<<<<<<<<<<<<<<<<<//


*** tstart() called on ds1
*** at Wed Sep  1 13:35:55 2021

        SAPT0  
    Ed Hohenstein
     6 June 2009

      Orbital Information
  --------------------------
    NSO        =       256
    NMO        =       256
    NRI        =       760
    NOCC A     =        16
    NOCC B     =        16
    FOCC A     =         4
    FOCC B     =         4
    NVIR A     =       240
    NVIR B     =       240

    Elst10,r            =    -0.000011571376 [Eh]
    Exch10              =    -0.000000000000 [Eh]
    Exch10 (S^2)        =    -0.000000000000 [Eh]

    Iter     Energy [mEh]          dE [mEh]         Residual      Time [s]
       1      -0.00000434       0.000004337       0.018286224             0
       2      -0.00000447       0.000000133       0.007362341             0
       3      -0.00000492       0.000000450       0.002416618             0
       4      -0.00000498       0.000000064       0.000677593             0
       5      -0.00000497      -0.000000017       0.000372148             1
       6      -0.00000496      -0.000000006       0.000108619             1
       7      -0.00000496       0.000000002       0.000032522             1
       8      -0.00000496       0.000000000       0.000007593             1
       9      -0.00000496      -0.000000000       0.000002181             1
      10      -0.00000496      -0.000000000       0.000000514             1

    CHF Iterations converged


    Iter     Energy [mEh]          dE [mEh]         Residual      Time [s]
       1      -0.00000279       0.000002790       0.015834050             0
       2      -0.00000286       0.000000074       0.006023723             0
       3      -0.00000320       0.000000333       0.002020276             0
       4      -0.00000324       0.000000041       0.000661765             0
       5      -0.00000322      -0.000000020       0.000213317             0
       6      -0.00000322       0.000000000       0.000072897             0
       7      -0.00000322       0.000000001       0.000024017             0
       8      -0.00000322       0.000000000       0.000006220             1
       9      -0.00000322      -0.000000000       0.000001957             1
      10      -0.00000322      -0.000000000       0.000000590             1

    CHF Iterations converged

    Ind20,r (A<-B)      =    -0.000000004964 [Eh]
    Ind20,r (B<-A)      =    -0.000000003220 [Eh]
    Ind20,r             =    -0.000000008183 [Eh]
    Exch-Ind20,r (A<-B) =     0.000000000000 [Eh]
    Exch-Ind20,r (B<-A) =     0.000000000000 [Eh]
    Exch-Ind20,r        =     0.000000000000 [Eh]
    Disp20              =    -0.000000103796 [Eh]
    Disp20 (SS)         =    -0.000000051898 [Eh]
    Disp20 (OS)         =    -0.000000051898 [Eh]
    Exch-Disp20         =     0.000000000000 [Eh]
    Exch-Disp20 (SS)    =     0.000000000000 [Eh]
    Exch-Disp20 (OS)    =     0.000000000000 [Eh]

    SAPT Results 
  --------------------------------------------------------------------------------------------------------
    Electrostatics                 -0.01157138 [mEh]      -0.00726115 [kcal/mol]      -0.03038064 [kJ/mol]
      Elst10,r                     -0.01157138 [mEh]      -0.00726115 [kcal/mol]      -0.03038064 [kJ/mol]

    Exchange                       -0.00000000 [mEh]      -0.00000000 [kcal/mol]      -0.00000000 [kJ/mol]
      Exch10                       -0.00000000 [mEh]      -0.00000000 [kcal/mol]      -0.00000000 [kJ/mol]
      Exch10(S^2)                  -0.00000000 [mEh]      -0.00000000 [kcal/mol]      -0.00000000 [kJ/mol]

    Induction                      -0.00002150 [mEh]      -0.00001349 [kcal/mol]      -0.00005644 [kJ/mol]
      Ind20,r                      -0.00000818 [mEh]      -0.00000514 [kcal/mol]      -0.00002149 [kJ/mol]
      Exch-Ind20,r                  0.00000000 [mEh]       0.00000000 [kcal/mol]       0.00000000 [kJ/mol]
      delta HF,r (2)               -0.00001331 [mEh]      -0.00000835 [kcal/mol]      -0.00003496 [kJ/mol]

    Dispersion                     -0.00010380 [mEh]      -0.00006513 [kcal/mol]      -0.00027252 [kJ/mol]
      Disp20                       -0.00010380 [mEh]      -0.00006513 [kcal/mol]      -0.00027252 [kJ/mol]
      Exch-Disp20                   0.00000000 [mEh]       0.00000000 [kcal/mol]       0.00000000 [kJ/mol]
      Disp20 (SS)                  -0.00005190 [mEh]      -0.00003257 [kcal/mol]      -0.00013626 [kJ/mol]
      Disp20 (OS)                  -0.00005190 [mEh]      -0.00003257 [kcal/mol]      -0.00013626 [kJ/mol]
      Exch-Disp20 (SS)              0.00000000 [mEh]       0.00000000 [kcal/mol]       0.00000000 [kJ/mol]
      Exch-Disp20 (OS)              0.00000000 [mEh]       0.00000000 [kcal/mol]       0.00000000 [kJ/mol]

  Total HF                         -0.01159287 [mEh]      -0.00727464 [kcal/mol]      -0.03043709 [kJ/mol]
  Total SAPT0                      -0.01169667 [mEh]      -0.00733977 [kcal/mol]      -0.03070960 [kJ/mol]

  Special recipe for scaled SAPT0 (see Manual):
    Electrostatics sSAPT0          -0.01157138 [mEh]      -0.00726115 [kcal/mol]      -0.03038064 [kJ/mol]
    Exchange sSAPT0                -0.00000000 [mEh]      -0.00000000 [kcal/mol]      -0.00000000 [kJ/mol]
    Induction sSAPT0               -0.00002150 [mEh]      -0.00001349 [kcal/mol]      -0.00005644 [kJ/mol]
    Dispersion sSAPT0              -0.00010380 [mEh]      -0.00006513 [kcal/mol]      -0.00027252 [kJ/mol]
  Total sSAPT0                     -0.01169667 [mEh]      -0.00733977 [kcal/mol]      -0.03070960 [kJ/mol]
  --------------------------------------------------------------------------------------------------------

*** tstop() called on ds1 at Wed Sep  1 13:36:00 2021
Module time:
	user time   =      26.85 seconds =       0.45 minutes
	system time =       2.32 seconds =       0.04 minutes
	total time  =          5 seconds =       0.08 minutes
Total time:
	user time   =      62.72 seconds =       1.05 minutes
	system time =       3.11 seconds =       0.05 minutes
	total time  =         13 seconds =       0.22 minutes


Warning! sapt0 does not have an associated derived wavefunction.The returned wavefunction is the dimer SCF wavefunction.


    Psi4 stopped on: Wednesday, 01 September 2021 01:36PM
    Psi4 wall time for execution: 0:00:13.65

*** Psi4 exiting successfully. Buy a developer a beer!
