
    -----------------------------------------------------------------------
          Psi4: An Open-Source Ab Initio Electronic Structure Package
                               Psi4 1.4rc3 

                         Git: Rev {HEAD} 080dba6 


    D. G. A. Smith, L. A. Burns, A. C. Simmonett, R. M. Parrish,
    M. C. Schieber, R. Galvelis, P. Kraus, H. Kruse, R. Di Remigio,
    A. Alenaizan, A. M. James, S. Lehtola, J. P. Misiewicz, M. Scheurer,
    R. A. Shaw, J. B. Schriber, Y. Xie, Z. L. Glick, D. A. Sirianni,
    J. S. O'Brien, J. M. Waldrop, A. Kumar, E. G. Hohenstein,
    B. P. Pritchard, B. R. Brooks, H. F. Schaefer III, A. Yu. Sokolov,
    K. Patkowski, A. E. DePrince III, U. Bozkaya, R. A. King,
    F. A. Evangelista, J. M. Turney, T. D. Crawford, C. D. Sherrill,
    J. Chem. Phys. 152(18) 184108 (2020). https://doi.org/10.1063/5.0006002

                            Additional Code Authors
    E. T. Seidl, C. L. Janssen, E. F. Valeev, M. L. Leininger,
    J. F. Gonthier, R. M. Richard, H. R. McAlexander, M. Saitow, X. Wang,
    P. Verma, and M. H. Lechner

             Previous Authors, Complete List of Code Contributors,
                       and Citations for Specific Modules
    https://github.com/psi4/psi4/blob/master/codemeta.json
    https://github.com/psi4/psi4/graphs/contributors
    http://psicode.org/psi4manual/master/introduction.html#citing-psifour

    -----------------------------------------------------------------------


    Psi4 started on: Wednesday, 01 September 2021 01:21PM

    Process ID: 18083
    Host:       ds1
    PSIDATADIR: /theoryfs2/ds/csargent/miniconda3/envs/cle/share/psi4
    Memory:     500.0 MiB
    Threads:    6
    
  ==> Input File <==

--------------------------------------------------------------------------
# PSI4 file produced by CrystaLattE

# Generated from:               acetic_acid.xyz
# Psithon input for N-mer:      2mer-0+336
# Number of atoms per monomer:  [8, 8]
# Number of replicas:           2
# COM priority:                 2.459338968737e-05
# Minimum COM separations:      18.197 
# Separation priority:          3.878981766456e-05
# Minimum monomer separations:  15.633 
# Cutoff priority:              1.313077372784e-06
# Nuclear repulsion energy:     273.1952465313091

memory 7 GB

molecule Dimer_0_336 {
  O           -5.53102237       2.93940290       1.97762624 
  O           -2.40708886       0.90817734       0.04905909 
  H           -0.50304887       1.37579205       4.63880908 
  H            0.00000000       4.25104285       3.09072238 
  H           -2.38948215       4.01916779       5.40195041 
  H           -3.74771411       0.47147930      -1.21557512 
  C           -1.41859782       2.98500500       3.84405190 
  C           -3.32263781       2.28628814       1.91221413 
--
  O          -17.96136005     -10.51398835     -25.27742123 
  O          -21.08529356      -8.48276279     -27.20598839 
  H          -22.98933354      -8.95037750     -22.61623840 
  H          -23.49238242     -11.82562830     -24.16432509 
  H          -21.10290027     -11.59375324     -21.85309707 
  H          -19.74466831      -8.04606475     -28.47062259 
  C          -22.07378459     -10.55959045     -23.41099558 
  C          -20.16974460      -9.86087359     -25.34283335 
units = au
no_com
no_reorient
}

set {
  e_convergence 10
  d_convergence 10
  scf_type df
  mp2_type df
  cc_type df
  freeze_core true
}

energy('sapt0/aug-cc-pvdz')

--------------------------------------------------------------------------

  Memory set to   6.519 GiB by Python driver.

Scratch directory: /scratch/csargent/psi4.17562.33784/

Scratch directory: /scratch/csargent/psi4.17562.33784/

  //>>>>>>>>>>>>>>>>>>>>>>>>>>>>>>>>>>>//
  //              Dimer HF             //
  //<<<<<<<<<<<<<<<<<<<<<<<<<<<<<<<<<<<//


*** tstart() called on ds1
*** at Wed Sep  1 13:21:03 2021

   => Loading Basis Set <=

    Name: AUG-CC-PVDZ
    Role: ORBITAL
    Keyword: BASIS
    atoms 1-2, 9-10  entry O          line   254 file /theoryfs2/ds/csargent/miniconda3/envs/cle/share/psi4/basis/aug-cc-pvdz.gbs 
    atoms 3-6, 11-14 entry H          line    40 file /theoryfs2/ds/csargent/miniconda3/envs/cle/share/psi4/basis/aug-cc-pvdz.gbs 
    atoms 7-8, 15-16 entry C          line   182 file /theoryfs2/ds/csargent/miniconda3/envs/cle/share/psi4/basis/aug-cc-pvdz.gbs 


         ---------------------------------------------------------
                                   SCF
               by Justin Turney, Rob Parrish, Andy Simmonett
                          and Daniel G. A. Smith
                              RHF Reference
                        6 Threads,   6675 MiB Core
         ---------------------------------------------------------

  ==> Geometry <==

    Molecular point group: c1
    Full point group: C1

    Geometry (in Bohr), charge = 0, multiplicity = 1:

       Center              X                  Y                   Z               Mass       
    ------------   -----------------  -----------------  -----------------  -----------------
         O           -5.531022370000     2.939402900000     1.977626240000    15.994914619570
         O           -2.407088860000     0.908177340000     0.049059090000    15.994914619570
         H           -0.503048870000     1.375792050000     4.638809080000     1.007825032230
         H            0.000000000000     4.251042850000     3.090722380000     1.007825032230
         H           -2.389482150000     4.019167790000     5.401950410000     1.007825032230
         H           -3.747714110000     0.471479300000    -1.215575120000     1.007825032230
         C           -1.418597820000     2.985005000000     3.844051900000    12.000000000000
         C           -3.322637810000     2.286288140000     1.912214130000    12.000000000000
         O          -17.961360050000   -10.513988350000   -25.277421230000    15.994914619570
         O          -21.085293560000    -8.482762790000   -27.205988390000    15.994914619570
         H          -22.989333540000    -8.950377500000   -22.616238400000     1.007825032230
         H          -23.492382420000   -11.825628300000   -24.164325090000     1.007825032230
         H          -21.102900270000   -11.593753240000   -21.853097070000     1.007825032230
         H          -19.744668310000    -8.046064750000   -28.470622590000     1.007825032230
         C          -22.073784590000   -10.559590450000   -23.410995580000    12.000000000000
         C          -20.169744600000    -9.860873590000   -25.342833350000    12.000000000000

  Running in c1 symmetry.

  Rotational constants: A =      0.03888  B =      0.00087  C =      0.00085 [cm^-1]
  Rotational constants: A =   1165.54376  B =     25.93740  C =     25.47628 [MHz]
  Nuclear repulsion =  273.195246669415610

  Charge       = 0
  Multiplicity = 1
  Electrons    = 64
  Nalpha       = 32
  Nbeta        = 32

  ==> Algorithm <==

  SCF Algorithm Type is DF.
  DIIS enabled.
  MOM disabled.
  Fractional occupation disabled.
  Guess Type is SAD.
  Energy threshold   = 1.00e-10
  Density threshold  = 1.00e-10
  Integral threshold = 1.00e-12

  ==> Primary Basis <==

  Basis Set: AUG-CC-PVDZ
    Blend: AUG-CC-PVDZ
    Number of shells: 112
    Number of basis functions: 256
    Number of Cartesian functions: 272
    Spherical Harmonics?: true
    Max angular momentum: 2

   => Loading Basis Set <=

    Name: (AUG-CC-PVDZ AUX)
    Role: JKFIT
    Keyword: DF_BASIS_SCF
    atoms 1-2, 9-10  entry O          line   270 file /theoryfs2/ds/csargent/miniconda3/envs/cle/share/psi4/basis/aug-cc-pvdz-jkfit.gbs 
    atoms 3-6, 11-14 entry H          line    70 file /theoryfs2/ds/csargent/miniconda3/envs/cle/share/psi4/basis/aug-cc-pvdz-jkfit.gbs 
    atoms 7-8, 15-16 entry C          line   154 file /theoryfs2/ds/csargent/miniconda3/envs/cle/share/psi4/basis/aug-cc-pvdz-jkfit.gbs 

  ==> Integral Setup <==

  ==> DiskDFJK: Density-Fitted J/K Matrices <==

    J tasked:                  Yes
    K tasked:                  Yes
    wK tasked:                  No
    OpenMP threads:              6
    Integrals threads:           6
    Memory [MiB]:             5006
    Algorithm:                Core
    Integral Cache:           SAVE
    Schwarz Cutoff:          1E-12
    Fitting Condition:       1E-10

   => Auxiliary Basis Set <=

  Basis Set: (AUG-CC-PVDZ AUX)
    Blend: AUG-CC-PVDZ-JKFIT
    Number of shells: 320
    Number of basis functions: 944
    Number of Cartesian functions: 1088
    Spherical Harmonics?: true
    Max angular momentum: 3

  Minimum eigenvalue in the overlap matrix is 1.0277441520E-04.
  Reciprocal condition number of the overlap matrix is 9.6538178806E-06.
    Using symmetric orthogonalization.

  ==> Pre-Iterations <==

  SCF Guess: Superposition of Atomic Densities via on-the-fly atomic UHF (no occupation information).

   -------------------------
    Irrep   Nso     Nmo    
   -------------------------
     A        256     256 
   -------------------------
    Total     256     256
   -------------------------

  ==> Iterations <==

                           Total Energy        Delta E     RMS |[F,P]|

   @DF-RHF iter SAD:  -453.97985886884317   -4.53980e+02   0.00000e+00 
   @DF-RHF iter   1:  -455.36188342989999   -1.38202e+00   3.22728e-03 DIIS
   @DF-RHF iter   2:  -455.60188328691322   -2.40000e-01   1.87321e-03 DIIS
   @DF-RHF iter   3:  -455.68266767282563   -8.07844e-02   3.30217e-04 DIIS
   @DF-RHF iter   4:  -455.68713880330540   -4.47113e-03   1.46093e-04 DIIS
   @DF-RHF iter   5:  -455.68809996515097   -9.61162e-04   3.42316e-05 DIIS
   @DF-RHF iter   6:  -455.68817425485497   -7.42897e-05   1.66557e-05 DIIS
   @DF-RHF iter   7:  -455.68819381776683   -1.95629e-05   5.43230e-06 DIIS
   @DF-RHF iter   8:  -455.68819697932770   -3.16156e-06   1.43626e-06 DIIS
   @DF-RHF iter   9:  -455.68819721255215   -2.33224e-07   3.01125e-07 DIIS
   @DF-RHF iter  10:  -455.68819722019282   -7.64066e-09   7.93955e-08 DIIS
   @DF-RHF iter  11:  -455.68819722059982   -4.06999e-10   2.54741e-08 DIIS
   @DF-RHF iter  12:  -455.68819722064444   -4.46221e-11   6.03829e-09 DIIS
   @DF-RHF iter  13:  -455.68819722064688   -2.44427e-12   1.29695e-09 DIIS
   @DF-RHF iter  14:  -455.68819722064649    3.97904e-13   5.19466e-10 DIIS
   @DF-RHF iter  15:  -455.68819722064711   -6.25278e-13   2.04252e-10 DIIS
   @DF-RHF iter  16:  -455.68819722064660    5.11591e-13   5.78586e-11 DIIS
  Energy and wave function converged.


  ==> Post-Iterations <==

    Orbital Energies [Eh]
    ---------------------

    Doubly Occupied:                                                      

       1A    -20.629435     2A    -20.629098     3A    -20.552779  
       4A    -20.552480     5A    -11.396076     6A    -11.395782  
       7A    -11.250905     8A    -11.250676     9A     -1.475816  
      10A     -1.475493    11A     -1.357460    12A     -1.357151  
      13A     -1.032936    14A     -1.032684    15A     -0.837881  
      16A     -0.837572    17A     -0.703039    18A     -0.702729  
      19A     -0.688416    20A     -0.688132    21A     -0.657700  
      22A     -0.657408    23A     -0.576494    24A     -0.576201  
      25A     -0.569631    26A     -0.569367    27A     -0.561336  
      28A     -0.561096    29A     -0.475322    30A     -0.475012  
      31A     -0.452407    32A     -0.452112  

    Virtual:                                                              

      33A      0.032306    34A      0.032620    35A      0.045698  
      36A      0.046082    37A      0.055233    38A      0.055399  
      39A      0.064689    40A      0.064868    41A      0.098834  
      42A      0.099094    43A      0.117361    44A      0.117655  
      45A      0.117917    46A      0.118187    47A      0.140583  
      48A      0.140914    49A      0.152079    50A      0.152339  
      51A      0.156439    52A      0.156635    53A      0.164631  
      54A      0.164888    55A      0.171373    56A      0.171641  
      57A      0.196364    58A      0.196636    59A      0.209281  
      60A      0.209660    61A      0.233431    62A      0.233734  
      63A      0.235004    64A      0.235300    65A      0.270903  
      66A      0.271151    67A      0.290280    68A      0.290598  
      69A      0.295882    70A      0.296138    71A      0.319874  
      72A      0.320214    73A      0.322791    74A      0.323087  
      75A      0.347338    76A      0.347595    77A      0.370674  
      78A      0.370967    79A      0.378951    80A      0.379200  
      81A      0.394161    82A      0.394447    83A      0.401481  
      84A      0.401752    85A      0.426768    86A      0.427037  
      87A      0.438291    88A      0.438548    89A      0.442088  
      90A      0.442328    91A      0.475594    92A      0.475925  
      93A      0.492437    94A      0.492684    95A      0.524839  
      96A      0.525076    97A      0.537296    98A      0.537557  
      99A      0.553562   100A      0.553823   101A      0.569806  
     102A      0.570050   103A      0.583861   104A      0.584100  
     105A      0.602151   106A      0.602478   107A      0.618291  
     108A      0.618573   109A      0.640374   110A      0.640649  
     111A      0.649362   112A      0.649625   113A      0.666781  
     114A      0.667036   115A      0.684262   116A      0.684535  
     117A      0.697238   118A      0.697502   119A      0.703642  
     120A      0.703876   121A      0.733347   122A      0.733614  
     123A      0.742805   124A      0.743062   125A      0.798532  
     126A      0.798763   127A      0.853631   128A      0.853923  
     129A      0.876861   130A      0.877168   131A      0.912439  
     132A      0.912737   133A      0.949748   134A      0.950030  
     135A      0.954425   136A      0.954718   137A      0.983189  
     138A      0.983483   139A      1.041593   140A      1.041889  
     141A      1.088884   142A      1.089126   143A      1.101909  
     144A      1.102149   145A      1.118424   146A      1.118685  
     147A      1.157557   148A      1.157880   149A      1.172190  
     150A      1.172491   151A      1.176408   152A      1.176690  
     153A      1.236089   154A      1.236394   155A      1.272214  
     156A      1.272517   157A      1.319249   158A      1.319553  
     159A      1.358206   160A      1.358506   161A      1.390468  
     162A      1.390751   163A      1.412508   164A      1.412764  
     165A      1.462815   166A      1.463131   167A      1.468006  
     168A      1.468336   169A      1.546076   170A      1.546329  
     171A      1.635094   172A      1.635387   173A      1.649963  
     174A      1.650255   175A      1.715150   176A      1.715435  
     177A      1.755854   178A      1.756123   179A      1.772950  
     180A      1.773193   181A      1.848074   182A      1.848358  
     183A      1.865567   184A      1.865826   185A      1.883889  
     186A      1.884116   187A      1.966506   188A      1.966807  
     189A      1.979487   190A      1.979791   191A      2.026356  
     192A      2.026618   193A      2.037689   194A      2.037984  
     195A      2.122893   196A      2.123187   197A      2.172109  
     198A      2.172386   199A      2.193193   200A      2.193465  
     201A      2.244834   202A      2.245084   203A      2.253699  
     204A      2.253974   205A      2.272395   206A      2.272676  
     207A      2.312299   208A      2.312586   209A      2.379669  
     210A      2.379923   211A      2.430380   212A      2.430683  
     213A      2.438725   214A      2.438986   215A      2.536361  
     216A      2.536622   217A      2.623631   218A      2.623914  
     219A      2.652377   220A      2.652611   221A      2.783739  
     222A      2.783999   223A      2.833703   224A      2.833976  
     225A      2.886186   226A      2.886436   227A      2.974348  
     228A      2.974638   229A      3.001670   230A      3.001929  
     231A      3.016369   232A      3.016647   233A      3.178981  
     234A      3.179280   235A      3.346159   236A      3.346455  
     237A      3.666745   238A      3.667075   239A      3.690463  
     240A      3.690795   241A      3.736473   242A      3.736794  
     243A      3.759682   244A      3.759989   245A      3.790350  
     246A      3.790662   247A      3.805271   248A      3.805578  
     249A      3.900447   250A      3.900768   251A      4.050394  
     252A      4.050706   253A      4.142362   254A      4.142673  
     255A      4.309994   256A      4.310326  

    Final Occupation by Irrep:
              A 
    DOCC [    32 ]

  @DF-RHF Final Energy:  -455.68819722064660

   => Energetics <=

    Nuclear Repulsion Energy =            273.1952466694156101
    One-Electron Energy =               -1164.9056391617987174
    Two-Electron Energy =                 436.0221952717365070
    Total Energy =                       -455.6881972206466003

Computation Completed


Properties will be evaluated at   0.000000,   0.000000,   0.000000 [a0]

Properties computed using the SCF density matrix

  Nuclear Dipole Moment: [e a0]
     X:  -751.7562      Y:  -242.3867      Z:  -746.8275

  Electronic Dipole Moment: [e a0]
     X:   751.7558      Y:   242.3864      Z:   746.6605

  Dipole Moment: [e a0]
     X:    -0.0004      Y:    -0.0003      Z:    -0.1671     Total:     0.1671

  Dipole Moment: [D]
     X:    -0.0011      Y:    -0.0008      Z:    -0.4246     Total:     0.4246


*** tstop() called on ds1 at Wed Sep  1 13:21:06 2021
Module time:
	user time   =      14.81 seconds =       0.25 minutes
	system time =       0.44 seconds =       0.01 minutes
	total time  =          3 seconds =       0.05 minutes
Total time:
	user time   =      14.81 seconds =       0.25 minutes
	system time =       0.44 seconds =       0.01 minutes
	total time  =          3 seconds =       0.05 minutes

  //>>>>>>>>>>>>>>>>>>>>>>>>>>>>>>>>>>>//
  //            Monomer A HF           //
  //<<<<<<<<<<<<<<<<<<<<<<<<<<<<<<<<<<<//


*** tstart() called on ds1
*** at Wed Sep  1 13:21:06 2021

   => Loading Basis Set <=

    Name: AUG-CC-PVDZ
    Role: ORBITAL
    Keyword: BASIS
    atoms 1-2, 9-10  entry O          line   254 file /theoryfs2/ds/csargent/miniconda3/envs/cle/share/psi4/basis/aug-cc-pvdz.gbs 
    atoms 3-6, 11-14 entry H          line    40 file /theoryfs2/ds/csargent/miniconda3/envs/cle/share/psi4/basis/aug-cc-pvdz.gbs 
    atoms 7-8, 15-16 entry C          line   182 file /theoryfs2/ds/csargent/miniconda3/envs/cle/share/psi4/basis/aug-cc-pvdz.gbs 


         ---------------------------------------------------------
                                   SCF
               by Justin Turney, Rob Parrish, Andy Simmonett
                          and Daniel G. A. Smith
                              RHF Reference
                        6 Threads,   6675 MiB Core
         ---------------------------------------------------------

  ==> Geometry <==

    Molecular point group: c1
    Full point group: C1

    Geometry (in Bohr), charge = 0, multiplicity = 1:

       Center              X                  Y                   Z               Mass       
    ------------   -----------------  -----------------  -----------------  -----------------
         O           -5.531022370000     2.939402900000     1.977626240000    15.994914619570
         O           -2.407088860000     0.908177340000     0.049059090000    15.994914619570
         H           -0.503048870000     1.375792050000     4.638809080000     1.007825032230
         H            0.000000000000     4.251042850000     3.090722380000     1.007825032230
         H           -2.389482150000     4.019167790000     5.401950410000     1.007825032230
         H           -3.747714110000     0.471479300000    -1.215575120000     1.007825032230
         C           -1.418597820000     2.985005000000     3.844051900000    12.000000000000
         C           -3.322637810000     2.286288140000     1.912214130000    12.000000000000
      Gh(O)         -17.961360050000   -10.513988350000   -25.277421230000    15.994914619570
      Gh(O)         -21.085293560000    -8.482762790000   -27.205988390000    15.994914619570
      Gh(H)         -22.989333540000    -8.950377500000   -22.616238400000     1.007825032230
      Gh(H)         -23.492382420000   -11.825628300000   -24.164325090000     1.007825032230
      Gh(H)         -21.102900270000   -11.593753240000   -21.853097070000     1.007825032230
      Gh(H)         -19.744668310000    -8.046064750000   -28.470622590000     1.007825032230
      Gh(C)         -22.073784590000   -10.559590450000   -23.410995580000    12.000000000000
      Gh(C)         -20.169744600000    -9.860873590000   -25.342833350000    12.000000000000

  Running in c1 symmetry.

  Rotational constants: A =      0.03888  B =      0.00087  C =      0.00085 [cm^-1]
  Rotational constants: A =   1165.54376  B =     25.93740  C =     25.47628 [MHz]
  Nuclear repulsion =  121.748430210971620

  Charge       = 0
  Multiplicity = 1
  Electrons    = 32
  Nalpha       = 16
  Nbeta        = 16

  ==> Algorithm <==

  SCF Algorithm Type is DF.
  DIIS enabled.
  MOM disabled.
  Fractional occupation disabled.
  Guess Type is SAD.
  Energy threshold   = 1.00e-10
  Density threshold  = 1.00e-10
  Integral threshold = 1.00e-12

  ==> Primary Basis <==

  Basis Set: AUG-CC-PVDZ
    Blend: AUG-CC-PVDZ
    Number of shells: 112
    Number of basis functions: 256
    Number of Cartesian functions: 272
    Spherical Harmonics?: true
    Max angular momentum: 2

   => Loading Basis Set <=

    Name: (AUG-CC-PVDZ AUX)
    Role: JKFIT
    Keyword: DF_BASIS_SCF
    atoms 1-2, 9-10  entry O          line   270 file /theoryfs2/ds/csargent/miniconda3/envs/cle/share/psi4/basis/aug-cc-pvdz-jkfit.gbs 
    atoms 3-6, 11-14 entry H          line    70 file /theoryfs2/ds/csargent/miniconda3/envs/cle/share/psi4/basis/aug-cc-pvdz-jkfit.gbs 
    atoms 7-8, 15-16 entry C          line   154 file /theoryfs2/ds/csargent/miniconda3/envs/cle/share/psi4/basis/aug-cc-pvdz-jkfit.gbs 

  ==> Integral Setup <==

  ==> DiskDFJK: Density-Fitted J/K Matrices <==

    J tasked:                  Yes
    K tasked:                  Yes
    wK tasked:                  No
    OpenMP threads:              6
    Integrals threads:           6
    Memory [MiB]:             5006
    Algorithm:                Core
    Integral Cache:           LOAD
    Schwarz Cutoff:          1E-12
    Fitting Condition:       1E-10

   => Auxiliary Basis Set <=

  Basis Set: (AUG-CC-PVDZ AUX)
    Blend: AUG-CC-PVDZ-JKFIT
    Number of shells: 320
    Number of basis functions: 944
    Number of Cartesian functions: 1088
    Spherical Harmonics?: true
    Max angular momentum: 3

  Minimum eigenvalue in the overlap matrix is 1.0277441520E-04.
  Reciprocal condition number of the overlap matrix is 9.6538178806E-06.
    Using symmetric orthogonalization.

  ==> Pre-Iterations <==

  SCF Guess: Superposition of Atomic Densities via on-the-fly atomic UHF (no occupation information).

   -------------------------
    Irrep   Nso     Nmo    
   -------------------------
     A        256     256 
   -------------------------
    Total     256     256
   -------------------------

  ==> Iterations <==

                           Total Energy        Delta E     RMS |[F,P]|

   @DF-RHF iter SAD:  -226.98992942881335   -2.26990e+02   0.00000e+00 
   @DF-RHF iter   1:  -227.68091168168590   -6.90982e-01   2.28211e-03 DIIS
   @DF-RHF iter   2:  -227.80091445464649   -1.20003e-01   1.32478e-03 DIIS
   @DF-RHF iter   3:  -227.84131987385143   -4.04054e-02   2.33581e-04 DIIS
   @DF-RHF iter   4:  -227.84355633739386   -2.23646e-03   1.03339e-04 DIIS
   @DF-RHF iter   5:  -227.84403723839654   -4.80901e-04   2.42136e-05 DIIS
   @DF-RHF iter   6:  -227.84407440639413   -3.71680e-05   1.17797e-05 DIIS
   @DF-RHF iter   7:  -227.84408419451947   -9.78813e-06   3.84272e-06 DIIS
   @DF-RHF iter   8:  -227.84408577610628   -1.58159e-06   1.01577e-06 DIIS
   @DF-RHF iter   9:  -227.84408589275679   -1.16651e-07   2.12953e-07 DIIS
   @DF-RHF iter  10:  -227.84408589657698   -3.82019e-09   5.61608e-08 DIIS
   @DF-RHF iter  11:  -227.84408589678085   -2.03869e-10   1.80147e-08 DIIS
   @DF-RHF iter  12:  -227.84408589680319   -2.23395e-11   4.26466e-09 DIIS
   @DF-RHF iter  13:  -227.84408589680433   -1.13687e-12   8.93569e-10 DIIS
   @DF-RHF iter  14:  -227.84408589680487   -5.40012e-13   2.86711e-10 DIIS
   @DF-RHF iter  15:  -227.84408589680430    5.68434e-13   1.08058e-10 DIIS
   @DF-RHF iter  16:  -227.84408589680430    0.00000e+00   2.86096e-11 DIIS
  Energy and wave function converged.


  ==> Post-Iterations <==

    Orbital Energies [Eh]
    ---------------------

    Doubly Occupied:                                                      

       1A    -20.629476     2A    -20.552804     3A    -11.396108  
       4A    -11.250979     5A     -1.475853     6A     -1.357486  
       7A     -1.032999     8A     -0.837930     9A     -0.703065  
      10A     -0.688465    11A     -0.657749    12A     -0.576538  
      13A     -0.569697    14A     -0.561403    15A     -0.475343  
      16A     -0.452434  

    Virtual:                                                              

      17A      0.024840    18A      0.032214    19A      0.045626  
      20A      0.046888    21A      0.055084    22A      0.055689  
      23A      0.056549    24A      0.064645    25A      0.085432  
      26A      0.098769    27A      0.104667    28A      0.112260  
      29A      0.117323    30A      0.117474    31A      0.117857  
      32A      0.140430    33A      0.140545    34A      0.141438  
      35A      0.146942    36A      0.151976    37A      0.156356  
      38A      0.164577    39A      0.171320    40A      0.176421  
      41A      0.196303    42A      0.205679    43A      0.209237  
      44A      0.214643    45A      0.226348    46A      0.233376  
      47A      0.234963    48A      0.244067    49A      0.260288  
      50A      0.264855    51A      0.270849    52A      0.276681  
      53A      0.285485    54A      0.290295    55A      0.295802  
      56A      0.319834    57A      0.322781    58A      0.332365  
      59A      0.336343    60A      0.347275    61A      0.369510  
      62A      0.370652    63A      0.378870    64A      0.394119  
      65A      0.399387    66A      0.401429    67A      0.409875  
      68A      0.426690    69A      0.431222    70A      0.438003  
      71A      0.438218    72A      0.442006    73A      0.460505  
      74A      0.475555    75A      0.490297    76A      0.492357  
      77A      0.497360    78A      0.516580    79A      0.524763  
      80A      0.537262    81A      0.541823    82A      0.543659  
      83A      0.553487    84A      0.559715    85A      0.569740  
      86A      0.583791    87A      0.586899    88A      0.602101  
      89A      0.616374    90A      0.618231    91A      0.636318  
      92A      0.637128    93A      0.640311    94A      0.649301  
      95A      0.666705    96A      0.675201    97A      0.684210  
      98A      0.690021    99A      0.697190   100A      0.700898  
     101A      0.703571   102A      0.728217   103A      0.733289  
     104A      0.742748   105A      0.753702   106A      0.760404  
     107A      0.787238   108A      0.798460   109A      0.815869  
     110A      0.820193   111A      0.848318   112A      0.853581  
     113A      0.876833   114A      0.888276   115A      0.896483  
     116A      0.912403   117A      0.947677   118A      0.949697  
     119A      0.954375   120A      0.958192   121A      0.975969  
     122A      0.983144   123A      1.038007   124A      1.041547  
     125A      1.045249   126A      1.088819   127A      1.101839  
     128A      1.106478   129A      1.118367   130A      1.157520  
     131A      1.162608   132A      1.172141   133A      1.176359  
     134A      1.190933   135A      1.236033   136A      1.260670  
     137A      1.270265   138A      1.272187   139A      1.319230  
     140A      1.329618   141A      1.358181   142A      1.384115  
     143A      1.390440   144A      1.396302   145A      1.412451  
     146A      1.434688   147A      1.458394   148A      1.462795  
     149A      1.467690   150A      1.467976   151A      1.469568  
     152A      1.537590   153A      1.546014   154A      1.569336  
     155A      1.635048   156A      1.649915   157A      1.683765  
     158A      1.715101   159A      1.717513   160A      1.755800  
     161A      1.772884   162A      1.800023   163A      1.848039  
     164A      1.865503   165A      1.882996   166A      1.883811  
     167A      1.937137   168A      1.966454   169A      1.979453  
     170A      2.026298   171A      2.037642   172A      2.070871  
     173A      2.122848   174A      2.172049   175A      2.193137  
     176A      2.244771   177A      2.251005   178A      2.253643  
     179A      2.265081   180A      2.272354   181A      2.274045  
     182A      2.303108   183A      2.312246   184A      2.336718  
     185A      2.339258   186A      2.362260   187A      2.376639  
     188A      2.379604   189A      2.430330   190A      2.438663  
     191A      2.467256   192A      2.505946   193A      2.536303  
     194A      2.586090   195A      2.623585   196A      2.652307  
     197A      2.664796   198A      2.698461   199A      2.754495  
     200A      2.783681   201A      2.786337   202A      2.824350  
     203A      2.833647   204A      2.886121   205A      2.916130  
     206A      2.974291   207A      3.001602   208A      3.016316  
     209A      3.042859   210A      3.178935   211A      3.182588  
     212A      3.278770   213A      3.310861   214A      3.346124  
     215A      3.357049   216A      3.431660   217A      3.486887  
     218A      3.662950   219A      3.666705   220A      3.690423  
     221A      3.736441   222A      3.740251   223A      3.759662  
     224A      3.790324   225A      3.805251   226A      3.900417  
     227A      4.026271   228A      4.050368   229A      4.142340  
     230A      4.153871   231A      4.309953   232A      4.505114  
     233A      4.617085   234A      4.725132   235A      4.926090  
     236A      4.969930   237A      4.978206   238A      5.001839  
     239A      5.017062   240A      5.033949   241A      5.052709  
     242A      5.222210   243A      5.244419   244A      5.615444  
     245A      5.661431   246A      5.791539   247A      5.869232  
     248A      6.052999   249A      6.229044   250A      6.521010  
     251A      6.790493   252A      7.093173   253A     18.346489  
     254A     18.940986   255A     33.525723   256A     33.563811  

    Final Occupation by Irrep:
              A 
    DOCC [    16 ]

  @DF-RHF Final Energy:  -227.84408589680430

   => Energetics <=

    Nuclear Repulsion Energy =            121.7484302109716197
    One-Electron Energy =                -552.7483714451198011
    Two-Electron Energy =                 203.1558553373438940
    Total Energy =                       -227.8440858968043017

Computation Completed


Properties will be evaluated at   0.000000,   0.000000,   0.000000 [a0]

Properties computed using the SCF density matrix

  Nuclear Dipole Moment: [e a0]
     X:   -98.5925      Y:    72.5259      Z:    62.6670

  Electronic Dipole Moment: [e a0]
     X:    99.4206      Y:   -72.8088      Z:   -62.7502

  Dipole Moment: [e a0]
     X:     0.8281      Y:    -0.2829      Z:    -0.0832     Total:     0.8790

  Dipole Moment: [D]
     X:     2.1048      Y:    -0.7191      Z:    -0.2116     Total:     2.2342


*** tstop() called on ds1 at Wed Sep  1 13:21:09 2021
Module time:
	user time   =      10.63 seconds =       0.18 minutes
	system time =       0.19 seconds =       0.00 minutes
	total time  =          3 seconds =       0.05 minutes
Total time:
	user time   =      25.62 seconds =       0.43 minutes
	system time =       0.63 seconds =       0.01 minutes
	total time  =          6 seconds =       0.10 minutes

  //>>>>>>>>>>>>>>>>>>>>>>>>>>>>>>>>>>>//
  //            Monomer B HF           //
  //<<<<<<<<<<<<<<<<<<<<<<<<<<<<<<<<<<<//


*** tstart() called on ds1
*** at Wed Sep  1 13:21:09 2021

   => Loading Basis Set <=

    Name: AUG-CC-PVDZ
    Role: ORBITAL
    Keyword: BASIS
    atoms 1-2, 9-10  entry O          line   254 file /theoryfs2/ds/csargent/miniconda3/envs/cle/share/psi4/basis/aug-cc-pvdz.gbs 
    atoms 3-6, 11-14 entry H          line    40 file /theoryfs2/ds/csargent/miniconda3/envs/cle/share/psi4/basis/aug-cc-pvdz.gbs 
    atoms 7-8, 15-16 entry C          line   182 file /theoryfs2/ds/csargent/miniconda3/envs/cle/share/psi4/basis/aug-cc-pvdz.gbs 


         ---------------------------------------------------------
                                   SCF
               by Justin Turney, Rob Parrish, Andy Simmonett
                          and Daniel G. A. Smith
                              RHF Reference
                        6 Threads,   6675 MiB Core
         ---------------------------------------------------------

  ==> Geometry <==

    Molecular point group: c1
    Full point group: C1

    Geometry (in Bohr), charge = 0, multiplicity = 1:

       Center              X                  Y                   Z               Mass       
    ------------   -----------------  -----------------  -----------------  -----------------
      Gh(O)          -5.531022370000     2.939402900000     1.977626240000    15.994914619570
      Gh(O)          -2.407088860000     0.908177340000     0.049059090000    15.994914619570
      Gh(H)          -0.503048870000     1.375792050000     4.638809080000     1.007825032230
      Gh(H)           0.000000000000     4.251042850000     3.090722380000     1.007825032230
      Gh(H)          -2.389482150000     4.019167790000     5.401950410000     1.007825032230
      Gh(H)          -3.747714110000     0.471479300000    -1.215575120000     1.007825032230
      Gh(C)          -1.418597820000     2.985005000000     3.844051900000    12.000000000000
      Gh(C)          -3.322637810000     2.286288140000     1.912214130000    12.000000000000
         O          -17.961360050000   -10.513988350000   -25.277421230000    15.994914619570
         O          -21.085293560000    -8.482762790000   -27.205988390000    15.994914619570
         H          -22.989333540000    -8.950377500000   -22.616238400000     1.007825032230
         H          -23.492382420000   -11.825628300000   -24.164325090000     1.007825032230
         H          -21.102900270000   -11.593753240000   -21.853097070000     1.007825032230
         H          -19.744668310000    -8.046064750000   -28.470622590000     1.007825032230
         C          -22.073784590000   -10.559590450000   -23.410995580000    12.000000000000
         C          -20.169744600000    -9.860873590000   -25.342833350000    12.000000000000

  Running in c1 symmetry.

  Rotational constants: A =      0.03888  B =      0.00087  C =      0.00085 [cm^-1]
  Rotational constants: A =   1165.54376  B =     25.93740  C =     25.47628 [MHz]
  Nuclear repulsion =  121.748430311184748

  Charge       = 0
  Multiplicity = 1
  Electrons    = 32
  Nalpha       = 16
  Nbeta        = 16

  ==> Algorithm <==

  SCF Algorithm Type is DF.
  DIIS enabled.
  MOM disabled.
  Fractional occupation disabled.
  Guess Type is SAD.
  Energy threshold   = 1.00e-10
  Density threshold  = 1.00e-10
  Integral threshold = 1.00e-12

  ==> Primary Basis <==

  Basis Set: AUG-CC-PVDZ
    Blend: AUG-CC-PVDZ
    Number of shells: 112
    Number of basis functions: 256
    Number of Cartesian functions: 272
    Spherical Harmonics?: true
    Max angular momentum: 2

   => Loading Basis Set <=

    Name: (AUG-CC-PVDZ AUX)
    Role: JKFIT
    Keyword: DF_BASIS_SCF
    atoms 1-2, 9-10  entry O          line   270 file /theoryfs2/ds/csargent/miniconda3/envs/cle/share/psi4/basis/aug-cc-pvdz-jkfit.gbs 
    atoms 3-6, 11-14 entry H          line    70 file /theoryfs2/ds/csargent/miniconda3/envs/cle/share/psi4/basis/aug-cc-pvdz-jkfit.gbs 
    atoms 7-8, 15-16 entry C          line   154 file /theoryfs2/ds/csargent/miniconda3/envs/cle/share/psi4/basis/aug-cc-pvdz-jkfit.gbs 

  ==> Integral Setup <==

  ==> DiskDFJK: Density-Fitted J/K Matrices <==

    J tasked:                  Yes
    K tasked:                  Yes
    wK tasked:                  No
    OpenMP threads:              6
    Integrals threads:           6
    Memory [MiB]:             5006
    Algorithm:                Core
    Integral Cache:           LOAD
    Schwarz Cutoff:          1E-12
    Fitting Condition:       1E-10

   => Auxiliary Basis Set <=

  Basis Set: (AUG-CC-PVDZ AUX)
    Blend: AUG-CC-PVDZ-JKFIT
    Number of shells: 320
    Number of basis functions: 944
    Number of Cartesian functions: 1088
    Spherical Harmonics?: true
    Max angular momentum: 3

  Minimum eigenvalue in the overlap matrix is 1.0277441520E-04.
  Reciprocal condition number of the overlap matrix is 9.6538178806E-06.
    Using symmetric orthogonalization.

  ==> Pre-Iterations <==

  SCF Guess: Superposition of Atomic Densities via on-the-fly atomic UHF (no occupation information).

   -------------------------
    Irrep   Nso     Nmo    
   -------------------------
     A        256     256 
   -------------------------
    Total     256     256
   -------------------------

  ==> Iterations <==

                           Total Energy        Delta E     RMS |[F,P]|

   @DF-RHF iter SAD:  -226.98992943900339   -2.26990e+02   0.00000e+00 
   @DF-RHF iter   1:  -227.68091168054082   -6.90982e-01   2.28211e-03 DIIS
   @DF-RHF iter   2:  -227.80091445390121   -1.20003e-01   1.32478e-03 DIIS
   @DF-RHF iter   3:  -227.84131987260744   -4.04054e-02   2.33581e-04 DIIS
   @DF-RHF iter   4:  -227.84355633609613   -2.23646e-03   1.03339e-04 DIIS
   @DF-RHF iter   5:  -227.84403723708877   -4.80901e-04   2.42136e-05 DIIS
   @DF-RHF iter   6:  -227.84407440508502   -3.71680e-05   1.17797e-05 DIIS
   @DF-RHF iter   7:  -227.84408419321042   -9.78813e-06   3.84272e-06 DIIS
   @DF-RHF iter   8:  -227.84408577479724   -1.58159e-06   1.01577e-06 DIIS
   @DF-RHF iter   9:  -227.84408589144752   -1.16650e-07   2.12953e-07 DIIS
   @DF-RHF iter  10:  -227.84408589526780   -3.82028e-09   5.61608e-08 DIIS
   @DF-RHF iter  11:  -227.84408589547166   -2.03869e-10   1.80147e-08 DIIS
   @DF-RHF iter  12:  -227.84408589549363   -2.19700e-11   4.26466e-09 DIIS
   @DF-RHF iter  13:  -227.84408589549489   -1.25056e-12   8.93569e-10 DIIS
   @DF-RHF iter  14:  -227.84408589549506   -1.70530e-13   2.86710e-10 DIIS
   @DF-RHF iter  15:  -227.84408589549514   -8.52651e-14   1.08058e-10 DIIS
   @DF-RHF iter  16:  -227.84408589549506    8.52651e-14   2.86095e-11 DIIS
  Energy and wave function converged.


  ==> Post-Iterations <==

    Orbital Energies [Eh]
    ---------------------

    Doubly Occupied:                                                      

       1A    -20.629476     2A    -20.552804     3A    -11.396108  
       4A    -11.250979     5A     -1.475853     6A     -1.357486  
       7A     -1.032999     8A     -0.837930     9A     -0.703065  
      10A     -0.688465    11A     -0.657749    12A     -0.576538  
      13A     -0.569697    14A     -0.561403    15A     -0.475343  
      16A     -0.452434  

    Virtual:                                                              

      17A      0.025108    18A      0.032214    19A      0.045627  
      20A      0.047282    21A      0.055083    22A      0.055861  
      23A      0.056772    24A      0.064644    25A      0.085787  
      26A      0.098769    27A      0.104949    28A      0.112507  
      29A      0.117323    30A      0.117649    31A      0.117857  
      32A      0.140545    33A      0.140728    34A      0.141694  
      35A      0.147143    36A      0.151976    37A      0.156356  
      38A      0.164577    39A      0.171320    40A      0.176715  
      41A      0.196303    42A      0.205997    43A      0.209237  
      44A      0.214970    45A      0.226688    46A      0.233376  
      47A      0.234963    48A      0.244372    49A      0.260577  
      50A      0.265161    51A      0.270849    52A      0.277005  
      53A      0.285790    54A      0.290295    55A      0.295802  
      56A      0.319834    57A      0.322781    58A      0.332609  
      59A      0.336561    60A      0.347275    61A      0.369737  
      62A      0.370652    63A      0.378870    64A      0.394119  
      65A      0.399597    66A      0.401429    67A      0.410090  
      68A      0.426690    69A      0.431475    70A      0.438218  
      71A      0.438234    72A      0.442006    73A      0.460875  
      74A      0.475555    75A      0.490598    76A      0.492357  
      77A      0.497654    78A      0.516894    79A      0.524763  
      80A      0.537262    81A      0.542182    82A      0.543900  
      83A      0.553487    84A      0.559978    85A      0.569740  
      86A      0.583791    87A      0.587128    88A      0.602101  
      89A      0.616682    90A      0.618231    91A      0.636590  
      92A      0.637404    93A      0.640311    94A      0.649301  
      95A      0.666705    96A      0.675478    97A      0.684210  
      98A      0.690268    99A      0.697190   100A      0.701137  
     101A      0.703571   102A      0.728431   103A      0.733289  
     104A      0.742748   105A      0.753978   106A      0.760632  
     107A      0.787483   108A      0.798460   109A      0.816085  
     110A      0.820416   111A      0.848558   112A      0.853581  
     113A      0.876833   114A      0.888505   115A      0.896757  
     116A      0.912403   117A      0.947938   118A      0.949697  
     119A      0.954375   120A      0.958454   121A      0.976244  
     122A      0.983144   123A      1.038301   124A      1.041547  
     125A      1.045548   126A      1.088819   127A      1.101839  
     128A      1.106764   129A      1.118367   130A      1.157520  
     131A      1.162919   132A      1.172141   133A      1.176359  
     134A      1.191254   135A      1.236033   136A      1.261006  
     137A      1.270595   138A      1.272187   139A      1.319230  
     140A      1.329939   141A      1.358181   142A      1.384441  
     143A      1.390440   144A      1.396631   145A      1.412451  
     146A      1.435000   147A      1.458735   148A      1.462795  
     149A      1.467976   150A      1.468016   151A      1.469897  
     152A      1.537906   153A      1.546014   154A      1.569656  
     155A      1.635048   156A      1.649915   157A      1.684079  
     158A      1.715101   159A      1.717818   160A      1.755800  
     161A      1.772884   162A      1.800347   163A      1.848039  
     164A      1.865503   165A      1.883191   166A      1.883811  
     167A      1.937358   168A      1.966454   169A      1.979453  
     170A      2.026298   171A      2.037642   172A      2.071110  
     173A      2.122848   174A      2.172049   175A      2.193137  
     176A      2.244771   177A      2.251215   178A      2.253643  
     179A      2.265292   180A      2.272354   181A      2.274369  
     182A      2.303331   183A      2.312246   184A      2.336924  
     185A      2.339467   186A      2.362505   187A      2.376921  
     188A      2.379604   189A      2.430330   190A      2.438663  
     191A      2.467565   192A      2.506291   193A      2.536303  
     194A      2.586373   195A      2.623585   196A      2.652307  
     197A      2.665085   198A      2.698695   199A      2.754723  
     200A      2.783681   201A      2.786572   202A      2.824579  
     203A      2.833647   204A      2.886121   205A      2.916421  
     206A      2.974291   207A      3.001602   208A      3.016316  
     209A      3.043118   210A      3.178935   211A      3.182830  
     212A      3.279001   213A      3.311112   214A      3.346124  
     215A      3.357291   216A      3.431929   217A      3.487114  
     218A      3.663221   219A      3.666705   220A      3.690423  
     221A      3.736441   222A      3.740579   223A      3.759662  
     224A      3.790324   225A      3.805251   226A      3.900417  
     227A      4.026566   228A      4.050368   229A      4.142340  
     230A      4.154232   231A      4.309953   232A      4.505431  
     233A      4.617410   234A      4.725385   235A      4.926417  
     236A      4.970247   237A      4.978546   238A      5.002160  
     239A      5.017389   240A      5.034284   241A      5.052942  
     242A      5.222490   243A      5.244671   244A      5.615794  
     245A      5.661766   246A      5.791878   247A      5.869545  
     248A      6.053320   249A      6.229360   250A      6.521356  
     251A      6.790834   252A      7.093499   253A     18.346737  
     254A     18.941244   255A     33.526040   256A     33.564164  

    Final Occupation by Irrep:
              A 
    DOCC [    16 ]

  @DF-RHF Final Energy:  -227.84408589549506

   => Energetics <=

    Nuclear Repulsion Energy =            121.7484303111847481
    One-Electron Energy =                -552.7483716230967730
    Two-Electron Energy =                 203.1558554164169834
    Total Energy =                       -227.8440858954950556

Computation Completed


Properties will be evaluated at   0.000000,   0.000000,   0.000000 [a0]

Properties computed using the SCF density matrix

  Nuclear Dipole Moment: [e a0]
     X:  -653.1637      Y:  -314.9126      Z:  -809.4945

  Electronic Dipole Moment: [e a0]
     X:   652.3356      Y:   315.1955      Z:   809.4113

  Dipole Moment: [e a0]
     X:    -0.8281      Y:     0.2829      Z:    -0.0832     Total:     0.8790

  Dipole Moment: [D]
     X:    -2.1048      Y:     0.7191      Z:    -0.2116     Total:     2.2342


*** tstop() called on ds1 at Wed Sep  1 13:21:11 2021
Module time:
	user time   =      10.62 seconds =       0.18 minutes
	system time =       0.14 seconds =       0.00 minutes
	total time  =          2 seconds =       0.03 minutes
Total time:
	user time   =      36.46 seconds =       0.61 minutes
	system time =       0.77 seconds =       0.01 minutes
	total time  =          8 seconds =       0.13 minutes
  Constructing Basis Sets for SAPT...

   => Loading Basis Set <=

    Name: (AUG-CC-PVDZ AUX)
    Role: RIFIT
    Keyword: DF_BASIS_SAPT
    atoms 1-2, 9-10  entry O          line   204 file /theoryfs2/ds/csargent/miniconda3/envs/cle/share/psi4/basis/aug-cc-pvdz-ri.gbs 
    atoms 3-6, 11-14 entry H          line    30 file /theoryfs2/ds/csargent/miniconda3/envs/cle/share/psi4/basis/aug-cc-pvdz-ri.gbs 
    atoms 7-8, 15-16 entry C          line   112 file /theoryfs2/ds/csargent/miniconda3/envs/cle/share/psi4/basis/aug-cc-pvdz-ri.gbs 


  //>>>>>>>>>>>>>>>>>>>>>>>>>>>>>>>>>>>//
  //               SAPT0               //
  //<<<<<<<<<<<<<<<<<<<<<<<<<<<<<<<<<<<//


*** tstart() called on ds1
*** at Wed Sep  1 13:21:11 2021

        SAPT0  
    Ed Hohenstein
     6 June 2009

      Orbital Information
  --------------------------
    NSO        =       256
    NMO        =       256
    NRI        =       760
    NOCC A     =        16
    NOCC B     =        16
    FOCC A     =         4
    FOCC B     =         4
    NVIR A     =       240
    NVIR B     =       240

    Elst10,r            =    -0.000025382742 [Eh]
    Exch10              =    -0.000000000000 [Eh]
    Exch10 (S^2)        =    -0.000000000000 [Eh]

    Iter     Energy [mEh]          dE [mEh]         Residual      Time [s]
       1      -0.00001450       0.000014501       0.033994018             0
       2      -0.00001521       0.000000712       0.014208989             0
       3      -0.00001699       0.000001774       0.004006034             0
       4      -0.00001711       0.000000120       0.001408713             0
       5      -0.00001705      -0.000000053       0.000719423             0
       6      -0.00001703      -0.000000022       0.000199202             0
       7      -0.00001704       0.000000008       0.000066640             0
       8      -0.00001704       0.000000002       0.000014103             0
       9      -0.00001704      -0.000000000       0.000003414             0
      10      -0.00001704      -0.000000000       0.000000841             0

    CHF Iterations converged


    Iter     Energy [mEh]          dE [mEh]         Residual      Time [s]
       1      -0.00000971       0.000009708       0.033787245             1
       2      -0.00000972       0.000000014       0.011137309             1
       3      -0.00001108       0.000001357       0.003461902             1
       4      -0.00001116       0.000000084       0.001366717             1
       5      -0.00001110      -0.000000064       0.000427324             1
       6      -0.00001110       0.000000000       0.000136439             1
       7      -0.00001110       0.000000004       0.000041250             1
       8      -0.00001110       0.000000000       0.000010899             1
       9      -0.00001110      -0.000000000       0.000003348             1
      10      -0.00001110      -0.000000000       0.000001029             1
      11      -0.00001110       0.000000000       0.000000364             1

    CHF Iterations converged

    Ind20,r (A<-B)      =    -0.000000017042 [Eh]
    Ind20,r (B<-A)      =    -0.000000011104 [Eh]
    Ind20,r             =    -0.000000028146 [Eh]
    Exch-Ind20,r (A<-B) =     0.000000000000 [Eh]
    Exch-Ind20,r (B<-A) =     0.000000000000 [Eh]
    Exch-Ind20,r        =     0.000000000000 [Eh]
    Disp20              =    -0.000000330315 [Eh]
    Disp20 (SS)         =    -0.000000165157 [Eh]
    Disp20 (OS)         =    -0.000000165157 [Eh]
    Exch-Disp20         =     0.000000000000 [Eh]
    Exch-Disp20 (SS)    =     0.000000000000 [Eh]
    Exch-Disp20 (OS)    =     0.000000000000 [Eh]

    SAPT Results 
  --------------------------------------------------------------------------------------------------------
    Electrostatics                 -0.02538274 [mEh]      -0.01592791 [kcal/mol]      -0.06664238 [kJ/mol]
      Elst10,r                     -0.02538274 [mEh]      -0.01592791 [kcal/mol]      -0.06664238 [kJ/mol]

    Exchange                       -0.00000000 [mEh]      -0.00000000 [kcal/mol]      -0.00000000 [kJ/mol]
      Exch10                       -0.00000000 [mEh]      -0.00000000 [kcal/mol]      -0.00000000 [kJ/mol]
      Exch10(S^2)                  -0.00000000 [mEh]      -0.00000000 [kcal/mol]      -0.00000000 [kJ/mol]

    Induction                      -0.00004561 [mEh]      -0.00002862 [kcal/mol]      -0.00011974 [kJ/mol]
      Ind20,r                      -0.00002815 [mEh]      -0.00001766 [kcal/mol]      -0.00007390 [kJ/mol]
      Exch-Ind20,r                  0.00000000 [mEh]       0.00000000 [kcal/mol]       0.00000000 [kJ/mol]
      delta HF,r (2)               -0.00001746 [mEh]      -0.00001096 [kcal/mol]      -0.00004584 [kJ/mol]

    Dispersion                     -0.00033031 [mEh]      -0.00020728 [kcal/mol]      -0.00086724 [kJ/mol]
      Disp20                       -0.00033031 [mEh]      -0.00020728 [kcal/mol]      -0.00086724 [kJ/mol]
      Exch-Disp20                   0.00000000 [mEh]       0.00000000 [kcal/mol]       0.00000000 [kJ/mol]
      Disp20 (SS)                  -0.00016516 [mEh]      -0.00010364 [kcal/mol]      -0.00043362 [kJ/mol]
      Disp20 (OS)                  -0.00016516 [mEh]      -0.00010364 [kcal/mol]      -0.00043362 [kJ/mol]
      Exch-Disp20 (SS)              0.00000000 [mEh]       0.00000000 [kcal/mol]       0.00000000 [kJ/mol]
      Exch-Disp20 (OS)              0.00000000 [mEh]       0.00000000 [kcal/mol]       0.00000000 [kJ/mol]

  Total HF                         -0.02542835 [mEh]      -0.01595653 [kcal/mol]      -0.06676212 [kJ/mol]
  Total SAPT0                      -0.02575866 [mEh]      -0.01616380 [kcal/mol]      -0.06762936 [kJ/mol]

  Special recipe for scaled SAPT0 (see Manual):
    Electrostatics sSAPT0          -0.02538274 [mEh]      -0.01592791 [kcal/mol]      -0.06664238 [kJ/mol]
    Exchange sSAPT0                -0.00000000 [mEh]      -0.00000000 [kcal/mol]      -0.00000000 [kJ/mol]
    Induction sSAPT0               -0.00004561 [mEh]      -0.00002862 [kcal/mol]      -0.00011974 [kJ/mol]
    Dispersion sSAPT0              -0.00033031 [mEh]      -0.00020728 [kcal/mol]      -0.00086724 [kJ/mol]
  Total sSAPT0                     -0.02575866 [mEh]      -0.01616380 [kcal/mol]      -0.06762936 [kJ/mol]
  --------------------------------------------------------------------------------------------------------

*** tstop() called on ds1 at Wed Sep  1 13:21:17 2021
Module time:
	user time   =      27.32 seconds =       0.46 minutes
	system time =       2.35 seconds =       0.04 minutes
	total time  =          6 seconds =       0.10 minutes
Total time:
	user time   =      64.57 seconds =       1.08 minutes
	system time =       3.15 seconds =       0.05 minutes
	total time  =         14 seconds =       0.23 minutes


Warning! sapt0 does not have an associated derived wavefunction.The returned wavefunction is the dimer SCF wavefunction.


    Psi4 stopped on: Wednesday, 01 September 2021 01:21PM
    Psi4 wall time for execution: 0:00:14.11

*** Psi4 exiting successfully. Buy a developer a beer!
