
    -----------------------------------------------------------------------
          Psi4: An Open-Source Ab Initio Electronic Structure Package
                               Psi4 1.4rc3 

                         Git: Rev {HEAD} 080dba6 


    D. G. A. Smith, L. A. Burns, A. C. Simmonett, R. M. Parrish,
    M. C. Schieber, R. Galvelis, P. Kraus, H. Kruse, R. Di Remigio,
    A. Alenaizan, A. M. James, S. Lehtola, J. P. Misiewicz, M. Scheurer,
    R. A. Shaw, J. B. Schriber, Y. Xie, Z. L. Glick, D. A. Sirianni,
    J. S. O'Brien, J. M. Waldrop, A. Kumar, E. G. Hohenstein,
    B. P. Pritchard, B. R. Brooks, H. F. Schaefer III, A. Yu. Sokolov,
    K. Patkowski, A. E. DePrince III, U. Bozkaya, R. A. King,
    F. A. Evangelista, J. M. Turney, T. D. Crawford, C. D. Sherrill,
    J. Chem. Phys. 152(18) 184108 (2020). https://doi.org/10.1063/5.0006002

                            Additional Code Authors
    E. T. Seidl, C. L. Janssen, E. F. Valeev, M. L. Leininger,
    J. F. Gonthier, R. M. Richard, H. R. McAlexander, M. Saitow, X. Wang,
    P. Verma, and M. H. Lechner

             Previous Authors, Complete List of Code Contributors,
                       and Citations for Specific Modules
    https://github.com/psi4/psi4/blob/master/codemeta.json
    https://github.com/psi4/psi4/graphs/contributors
    http://psicode.org/psi4manual/master/introduction.html#citing-psifour

    -----------------------------------------------------------------------


    Psi4 started on: Wednesday, 01 September 2021 02:08PM

    Process ID: 20949
    Host:       ds1
    PSIDATADIR: /theoryfs2/ds/csargent/miniconda3/envs/cle/share/psi4
    Memory:     500.0 MiB
    Threads:    6
    
  ==> Input File <==

--------------------------------------------------------------------------
# PSI4 file produced by CrystaLattE

# Generated from:               acetic_acid.xyz
# Psithon input for N-mer:      2mer-0+589
# Number of atoms per monomer:  [8, 8]
# Number of replicas:           2
# COM priority:                 1.499173454347e-05
# Minimum COM separations:      21.461 
# Separation priority:          1.936209770287e-05
# Minimum monomer separations:  19.707 
# Cutoff priority:              5.199200228457e-07
# Nuclear repulsion energy:     268.6460322893546

memory 7 GB

molecule Dimer_0_589 {
  O           -5.53102237       2.93940290       1.97762624 
  O           -2.40708886       0.90817734       0.04905909 
  H           -0.50304887       1.37579205       4.63880908 
  H            0.00000000       4.25104285       3.09072238 
  H           -2.38948215       4.01916779       5.40195041 
  H           -3.74771411       0.47147930      -1.21557512 
  C           -1.41859782       2.98500500       3.84405190 
  C           -3.32263781       2.28628814       1.91221413 
--
  O          -30.53758190     -24.11268799       7.42863574 
  O          -33.66151541     -26.14391355       5.50006858 
  H          -35.56555540     -25.67629884      10.08981858 
  H          -36.06860427     -22.80104804       8.54173188 
  H          -33.67912212     -23.03292310      10.85295990 
  H          -32.32089016     -26.58061159       4.23543438 
  C          -34.65000644     -24.06708589       9.29506139 
  C          -32.74596646     -24.76580275       7.36322363 
units = au
no_com
no_reorient
}

set {
  e_convergence 10
  d_convergence 10
  scf_type df
  mp2_type df
  cc_type df
  freeze_core true
}

energy('sapt0/aug-cc-pvdz')

--------------------------------------------------------------------------

  Memory set to   6.519 GiB by Python driver.

Scratch directory: /scratch/csargent/psi4.17562.33784/

Scratch directory: /scratch/csargent/psi4.17562.33784/

  //>>>>>>>>>>>>>>>>>>>>>>>>>>>>>>>>>>>//
  //              Dimer HF             //
  //<<<<<<<<<<<<<<<<<<<<<<<<<<<<<<<<<<<//


*** tstart() called on ds1
*** at Wed Sep  1 14:08:08 2021

   => Loading Basis Set <=

    Name: AUG-CC-PVDZ
    Role: ORBITAL
    Keyword: BASIS
    atoms 1-2, 9-10  entry O          line   254 file /theoryfs2/ds/csargent/miniconda3/envs/cle/share/psi4/basis/aug-cc-pvdz.gbs 
    atoms 3-6, 11-14 entry H          line    40 file /theoryfs2/ds/csargent/miniconda3/envs/cle/share/psi4/basis/aug-cc-pvdz.gbs 
    atoms 7-8, 15-16 entry C          line   182 file /theoryfs2/ds/csargent/miniconda3/envs/cle/share/psi4/basis/aug-cc-pvdz.gbs 


         ---------------------------------------------------------
                                   SCF
               by Justin Turney, Rob Parrish, Andy Simmonett
                          and Daniel G. A. Smith
                              RHF Reference
                        6 Threads,   6675 MiB Core
         ---------------------------------------------------------

  ==> Geometry <==

    Molecular point group: c1
    Full point group: C1

    Geometry (in Bohr), charge = 0, multiplicity = 1:

       Center              X                  Y                   Z               Mass       
    ------------   -----------------  -----------------  -----------------  -----------------
         O           -5.531022370000     2.939402900000     1.977626240000    15.994914619570
         O           -2.407088860000     0.908177340000     0.049059090000    15.994914619570
         H           -0.503048870000     1.375792050000     4.638809080000     1.007825032230
         H            0.000000000000     4.251042850000     3.090722380000     1.007825032230
         H           -2.389482150000     4.019167790000     5.401950410000     1.007825032230
         H           -3.747714110000     0.471479300000    -1.215575120000     1.007825032230
         C           -1.418597820000     2.985005000000     3.844051900000    12.000000000000
         C           -3.322637810000     2.286288140000     1.912214130000    12.000000000000
         O          -30.537581900000   -24.112687990000     7.428635740000    15.994914619570
         O          -33.661515410000   -26.143913550000     5.500068580000    15.994914619570
         H          -35.565555400000   -25.676298840000    10.089818580000     1.007825032230
         H          -36.068604270000   -22.801048040000     8.541731880000     1.007825032230
         H          -33.679122120000   -23.032923100000    10.852959900000     1.007825032230
         H          -32.320890160000   -26.580611590000     4.235434380000     1.007825032230
         C          -34.650006440000   -24.067085890000     9.295061390000    12.000000000000
         C          -32.745966460000   -24.765802750000     7.363223630000    12.000000000000

  Running in c1 symmetry.

  Rotational constants: A =      0.04128  B =      0.00057  C =      0.00056 [cm^-1]
  Rotational constants: A =   1237.40357  B =     17.08399  C =     16.91244 [MHz]
  Nuclear repulsion =  268.646032359927347

  Charge       = 0
  Multiplicity = 1
  Electrons    = 64
  Nalpha       = 32
  Nbeta        = 32

  ==> Algorithm <==

  SCF Algorithm Type is DF.
  DIIS enabled.
  MOM disabled.
  Fractional occupation disabled.
  Guess Type is SAD.
  Energy threshold   = 1.00e-10
  Density threshold  = 1.00e-10
  Integral threshold = 1.00e-12

  ==> Primary Basis <==

  Basis Set: AUG-CC-PVDZ
    Blend: AUG-CC-PVDZ
    Number of shells: 112
    Number of basis functions: 256
    Number of Cartesian functions: 272
    Spherical Harmonics?: true
    Max angular momentum: 2

   => Loading Basis Set <=

    Name: (AUG-CC-PVDZ AUX)
    Role: JKFIT
    Keyword: DF_BASIS_SCF
    atoms 1-2, 9-10  entry O          line   270 file /theoryfs2/ds/csargent/miniconda3/envs/cle/share/psi4/basis/aug-cc-pvdz-jkfit.gbs 
    atoms 3-6, 11-14 entry H          line    70 file /theoryfs2/ds/csargent/miniconda3/envs/cle/share/psi4/basis/aug-cc-pvdz-jkfit.gbs 
    atoms 7-8, 15-16 entry C          line   154 file /theoryfs2/ds/csargent/miniconda3/envs/cle/share/psi4/basis/aug-cc-pvdz-jkfit.gbs 

  ==> Integral Setup <==

  ==> DiskDFJK: Density-Fitted J/K Matrices <==

    J tasked:                  Yes
    K tasked:                  Yes
    wK tasked:                  No
    OpenMP threads:              6
    Integrals threads:           6
    Memory [MiB]:             5006
    Algorithm:                Core
    Integral Cache:           SAVE
    Schwarz Cutoff:          1E-12
    Fitting Condition:       1E-10

   => Auxiliary Basis Set <=

  Basis Set: (AUG-CC-PVDZ AUX)
    Blend: AUG-CC-PVDZ-JKFIT
    Number of shells: 320
    Number of basis functions: 944
    Number of Cartesian functions: 1088
    Spherical Harmonics?: true
    Max angular momentum: 3

  Minimum eigenvalue in the overlap matrix is 1.0277546569E-04.
  Reciprocal condition number of the overlap matrix is 9.6539166774E-06.
    Using symmetric orthogonalization.

  ==> Pre-Iterations <==

  SCF Guess: Superposition of Atomic Densities via on-the-fly atomic UHF (no occupation information).

   -------------------------
    Irrep   Nso     Nmo    
   -------------------------
     A        256     256 
   -------------------------
    Total     256     256
   -------------------------

  ==> Iterations <==

                           Total Energy        Delta E     RMS |[F,P]|

   @DF-RHF iter SAD:  -453.97985886209585   -4.53980e+02   0.00000e+00 
   @DF-RHF iter   1:  -455.36180566044220   -1.38195e+00   3.22742e-03 DIIS
   @DF-RHF iter   2:  -455.60181288540133   -2.40007e-01   1.87361e-03 DIIS
   @DF-RHF iter   3:  -455.68263175125389   -8.08189e-02   3.30372e-04 DIIS
   @DF-RHF iter   4:  -455.68710522481626   -4.47347e-03   1.46160e-04 DIIS
   @DF-RHF iter   5:  -455.68806722700805   -9.62002e-04   3.42468e-05 DIIS
   @DF-RHF iter   6:  -455.68814157707106   -7.43501e-05   1.66602e-05 DIIS
   @DF-RHF iter   7:  -455.68816115770380   -1.95806e-05   5.43522e-06 DIIS
   @DF-RHF iter   8:  -455.68816432151721   -3.16381e-06   1.43661e-06 DIIS
   @DF-RHF iter   9:  -455.68816455484824   -2.33331e-07   3.01148e-07 DIIS
   @DF-RHF iter  10:  -455.68816456248783   -7.63958e-09   7.94272e-08 DIIS
   @DF-RHF iter  11:  -455.68816456289431   -4.06487e-10   2.54774e-08 DIIS
   @DF-RHF iter  12:  -455.68816456293888   -4.45652e-11   6.03122e-09 DIIS
   @DF-RHF iter  13:  -455.68816456294155   -2.67164e-12   1.26594e-09 DIIS
   @DF-RHF iter  14:  -455.68816456294149    5.68434e-14   4.14296e-10 DIIS
   @DF-RHF iter  15:  -455.68816456294206   -5.68434e-13   1.61007e-10 DIIS
   @DF-RHF iter  16:  -455.68816456294189    1.70530e-13   4.84077e-11 DIIS
  Energy and wave function converged.


  ==> Post-Iterations <==

    Orbital Energies [Eh]
    ---------------------

    Doubly Occupied:                                                      

       1A    -20.629230     2A    -20.628919     3A    -20.552542  
       4A    -20.552246     5A    -11.395847     6A    -11.395555  
       7A    -11.250710     8A    -11.250451     9A     -1.475601  
      10A     -1.475296    11A     -1.357228    12A     -1.356928  
      13A     -1.032734    14A     -1.032463    15A     -0.837678  
      16A     -0.837381    17A     -0.702807    18A     -0.702508  
      19A     -0.688206    20A     -0.687919    21A     -0.657492  
      22A     -0.657201    23A     -0.576281    24A     -0.575988  
      25A     -0.569436    26A     -0.569161    27A     -0.561134  
      28A     -0.560872    29A     -0.475083    30A     -0.474783  
      31A     -0.452171    32A     -0.451878  

    Virtual:                                                              

      33A      0.032451    34A      0.032747    35A      0.045858  
      36A      0.046163    37A      0.055346    38A      0.055596  
      39A      0.064948    40A      0.065154    41A      0.099029  
      42A      0.099307    43A      0.117569    44A      0.117896  
      45A      0.118119    46A      0.118403    47A      0.140799  
      48A      0.141092    49A      0.152226    50A      0.152491  
      51A      0.156634    52A      0.156896    53A      0.164860  
      54A      0.165095    55A      0.171578    56A      0.171877  
      57A      0.196560    58A      0.196840    59A      0.209470  
      60A      0.209794    61A      0.233630    62A      0.233924  
      63A      0.235217    64A      0.235514    65A      0.271120  
      66A      0.271382    67A      0.290563    68A      0.290866  
      69A      0.296062    70A      0.296330    71A      0.320076  
      72A      0.320394    73A      0.323048    74A      0.323361  
      75A      0.347539    76A      0.347809    77A      0.370915  
      78A      0.371207    79A      0.379128    80A      0.379401  
      81A      0.394381    82A      0.394660    83A      0.401693  
      84A      0.401975    85A      0.426949    86A      0.427214  
      87A      0.438472    88A      0.438771    89A      0.442274  
      90A      0.442522    91A      0.475804    92A      0.476107  
      93A      0.492619    94A      0.492893    95A      0.525028  
      96A      0.525295    97A      0.537536    98A      0.537803  
      99A      0.553746   100A      0.554019   101A      0.570008  
     102A      0.570271   103A      0.584058   104A      0.584323  
     105A      0.602348   106A      0.602649   107A      0.618488  
     108A      0.618772   109A      0.640567   110A      0.640854  
     111A      0.649565   112A      0.649831   113A      0.666961  
     114A      0.667247   115A      0.684475   116A      0.684750  
     117A      0.697456   118A      0.697730   119A      0.703836  
     120A      0.704101   121A      0.733548   122A      0.733834  
     123A      0.743013   124A      0.743290   125A      0.798729  
     126A      0.798991   127A      0.853838   128A      0.854127  
     129A      0.877092   130A      0.877390   131A      0.912664  
     132A      0.912956   133A      0.949955   134A      0.950246  
     135A      0.954633   136A      0.954920   137A      0.983401  
     138A      0.983690   139A      1.041801   140A      1.042102  
     141A      1.089088   142A      1.089352   143A      1.102106  
     144A      1.102370   145A      1.118630   146A      1.118907  
     147A      1.157772   148A      1.158077   149A      1.172395  
     150A      1.172691   151A      1.176618   152A      1.176904  
     153A      1.236283   154A      1.236579   155A      1.272446  
     156A      1.272746   157A      1.319493   158A      1.319791  
     159A      1.358444   160A      1.358734   161A      1.390706  
     162A      1.390991   163A      1.412716   164A      1.412992  
     165A      1.463051   166A      1.463355   167A      1.468228  
     168A      1.468534   169A      1.546279   170A      1.546551  
     171A      1.635307   172A      1.635592   173A      1.650172  
     174A      1.650468   175A      1.715360   176A      1.715648  
     177A      1.756062   178A      1.756344   179A      1.773151  
     180A      1.773416   181A      1.848303   182A      1.848594  
     183A      1.865765   184A      1.866039   185A      1.884078  
     186A      1.884337   187A      1.966708   188A      1.967000  
     189A      1.979712   190A      1.980007   191A      2.026561  
     192A      2.026840   193A      2.037900   194A      2.038190  
     195A      2.123106   196A      2.123398   197A      2.172307  
     198A      2.172591   199A      2.193399   200A      2.193678  
     201A      2.245038   202A      2.245305   203A      2.253903  
     204A      2.254186   205A      2.272617   206A      2.272903  
     207A      2.312503   208A      2.312790   209A      2.379867  
     210A      2.380141   211A      2.430584   212A      2.430878  
     213A      2.438926   214A      2.439199   215A      2.536566  
     216A      2.536843   217A      2.623846   218A      2.624131  
     219A      2.652575   220A      2.652838   221A      2.783946  
     222A      2.784219   223A      2.833907   224A      2.834188  
     225A      2.886387   226A      2.886654   227A      2.974548  
     228A      2.974833   229A      3.001860   230A      3.002143  
     231A      3.016576   232A      3.016859   233A      3.179191  
     234A      3.179485   235A      3.346384   236A      3.346680  
     237A      3.666953   238A      3.667261   239A      3.690671  
     240A      3.690980   241A      3.736694   242A      3.736998  
     243A      3.759924   244A      3.760223   245A      3.790581  
     246A      3.790882   247A      3.805512   248A      3.805812  
     249A      3.900671   250A      3.900974   251A      4.050626  
     252A      4.050926   253A      4.142599   254A      4.142900  
     255A      4.310200   256A      4.310508  

    Final Occupation by Irrep:
              A 
    DOCC [    32 ]

  @DF-RHF Final Energy:  -455.68816456294189

   => Energetics <=

    Nuclear Repulsion Energy =            268.6460323599273465
    One-Electron Energy =               -1155.8209325793095559
    Two-Electron Energy =                 431.4867356564402598
    Total Energy =                       -455.6881645629418927

Computation Completed


Properties will be evaluated at   0.000000,   0.000000,   0.000000 [a0]

Properties computed using the SCF density matrix

  Nuclear Dipole Moment: [e a0]
     X: -1154.1953      Y:  -720.6151      Z:   299.7663

  Electronic Dipole Moment: [e a0]
     X:  1154.1949      Y:   720.0493      Z:  -299.9325

  Dipole Moment: [e a0]
     X:    -0.0004      Y:    -0.5659      Z:    -0.1663     Total:     0.5898

  Dipole Moment: [D]
     X:    -0.0011      Y:    -1.4383      Z:    -0.4226     Total:     1.4991


*** tstop() called on ds1 at Wed Sep  1 14:08:12 2021
Module time:
	user time   =      14.18 seconds =       0.24 minutes
	system time =       0.38 seconds =       0.01 minutes
	total time  =          4 seconds =       0.07 minutes
Total time:
	user time   =      14.18 seconds =       0.24 minutes
	system time =       0.38 seconds =       0.01 minutes
	total time  =          4 seconds =       0.07 minutes

  //>>>>>>>>>>>>>>>>>>>>>>>>>>>>>>>>>>>//
  //            Monomer A HF           //
  //<<<<<<<<<<<<<<<<<<<<<<<<<<<<<<<<<<<//


*** tstart() called on ds1
*** at Wed Sep  1 14:08:12 2021

   => Loading Basis Set <=

    Name: AUG-CC-PVDZ
    Role: ORBITAL
    Keyword: BASIS
    atoms 1-2, 9-10  entry O          line   254 file /theoryfs2/ds/csargent/miniconda3/envs/cle/share/psi4/basis/aug-cc-pvdz.gbs 
    atoms 3-6, 11-14 entry H          line    40 file /theoryfs2/ds/csargent/miniconda3/envs/cle/share/psi4/basis/aug-cc-pvdz.gbs 
    atoms 7-8, 15-16 entry C          line   182 file /theoryfs2/ds/csargent/miniconda3/envs/cle/share/psi4/basis/aug-cc-pvdz.gbs 


         ---------------------------------------------------------
                                   SCF
               by Justin Turney, Rob Parrish, Andy Simmonett
                          and Daniel G. A. Smith
                              RHF Reference
                        6 Threads,   6675 MiB Core
         ---------------------------------------------------------

  ==> Geometry <==

    Molecular point group: c1
    Full point group: C1

    Geometry (in Bohr), charge = 0, multiplicity = 1:

       Center              X                  Y                   Z               Mass       
    ------------   -----------------  -----------------  -----------------  -----------------
         O           -5.531022370000     2.939402900000     1.977626240000    15.994914619570
         O           -2.407088860000     0.908177340000     0.049059090000    15.994914619570
         H           -0.503048870000     1.375792050000     4.638809080000     1.007825032230
         H            0.000000000000     4.251042850000     3.090722380000     1.007825032230
         H           -2.389482150000     4.019167790000     5.401950410000     1.007825032230
         H           -3.747714110000     0.471479300000    -1.215575120000     1.007825032230
         C           -1.418597820000     2.985005000000     3.844051900000    12.000000000000
         C           -3.322637810000     2.286288140000     1.912214130000    12.000000000000
      Gh(O)         -30.537581900000   -24.112687990000     7.428635740000    15.994914619570
      Gh(O)         -33.661515410000   -26.143913550000     5.500068580000    15.994914619570
      Gh(H)         -35.565555400000   -25.676298840000    10.089818580000     1.007825032230
      Gh(H)         -36.068604270000   -22.801048040000     8.541731880000     1.007825032230
      Gh(H)         -33.679122120000   -23.032923100000    10.852959900000     1.007825032230
      Gh(H)         -32.320890160000   -26.580611590000     4.235434380000     1.007825032230
      Gh(C)         -34.650006440000   -24.067085890000     9.295061390000    12.000000000000
      Gh(C)         -32.745966460000   -24.765802750000     7.363223630000    12.000000000000

  Running in c1 symmetry.

  Rotational constants: A =      0.04128  B =      0.00057  C =      0.00056 [cm^-1]
  Rotational constants: A =   1237.40357  B =     17.08399  C =     16.91244 [MHz]
  Nuclear repulsion =  121.748430210971620

  Charge       = 0
  Multiplicity = 1
  Electrons    = 32
  Nalpha       = 16
  Nbeta        = 16

  ==> Algorithm <==

  SCF Algorithm Type is DF.
  DIIS enabled.
  MOM disabled.
  Fractional occupation disabled.
  Guess Type is SAD.
  Energy threshold   = 1.00e-10
  Density threshold  = 1.00e-10
  Integral threshold = 1.00e-12

  ==> Primary Basis <==

  Basis Set: AUG-CC-PVDZ
    Blend: AUG-CC-PVDZ
    Number of shells: 112
    Number of basis functions: 256
    Number of Cartesian functions: 272
    Spherical Harmonics?: true
    Max angular momentum: 2

   => Loading Basis Set <=

    Name: (AUG-CC-PVDZ AUX)
    Role: JKFIT
    Keyword: DF_BASIS_SCF
    atoms 1-2, 9-10  entry O          line   270 file /theoryfs2/ds/csargent/miniconda3/envs/cle/share/psi4/basis/aug-cc-pvdz-jkfit.gbs 
    atoms 3-6, 11-14 entry H          line    70 file /theoryfs2/ds/csargent/miniconda3/envs/cle/share/psi4/basis/aug-cc-pvdz-jkfit.gbs 
    atoms 7-8, 15-16 entry C          line   154 file /theoryfs2/ds/csargent/miniconda3/envs/cle/share/psi4/basis/aug-cc-pvdz-jkfit.gbs 

  ==> Integral Setup <==

  ==> DiskDFJK: Density-Fitted J/K Matrices <==

    J tasked:                  Yes
    K tasked:                  Yes
    wK tasked:                  No
    OpenMP threads:              6
    Integrals threads:           6
    Memory [MiB]:             5006
    Algorithm:                Core
    Integral Cache:           LOAD
    Schwarz Cutoff:          1E-12
    Fitting Condition:       1E-10

   => Auxiliary Basis Set <=

  Basis Set: (AUG-CC-PVDZ AUX)
    Blend: AUG-CC-PVDZ-JKFIT
    Number of shells: 320
    Number of basis functions: 944
    Number of Cartesian functions: 1088
    Spherical Harmonics?: true
    Max angular momentum: 3

  Minimum eigenvalue in the overlap matrix is 1.0277546569E-04.
  Reciprocal condition number of the overlap matrix is 9.6539166774E-06.
    Using symmetric orthogonalization.

  ==> Pre-Iterations <==

  SCF Guess: Superposition of Atomic Densities via on-the-fly atomic UHF (no occupation information).

   -------------------------
    Irrep   Nso     Nmo    
   -------------------------
     A        256     256 
   -------------------------
    Total     256     256
   -------------------------

  ==> Iterations <==

                           Total Energy        Delta E     RMS |[F,P]|

   @DF-RHF iter SAD:  -226.98992942868770   -2.26990e+02   0.00000e+00 
   @DF-RHF iter   1:  -227.68091168111670   -6.90982e-01   2.28211e-03 DIIS
   @DF-RHF iter   2:  -227.80091445412282   -1.20003e-01   1.32478e-03 DIIS
   @DF-RHF iter   3:  -227.84131987336605   -4.04054e-02   2.33581e-04 DIIS
   @DF-RHF iter   4:  -227.84355633691308   -2.23646e-03   1.03339e-04 DIIS
   @DF-RHF iter   5:  -227.84403723791746   -4.80901e-04   2.42136e-05 DIIS
   @DF-RHF iter   6:  -227.84407440591548   -3.71680e-05   1.17797e-05 DIIS
   @DF-RHF iter   7:  -227.84408419404082   -9.78813e-06   3.84272e-06 DIIS
   @DF-RHF iter   8:  -227.84408577562797   -1.58159e-06   1.01577e-06 DIIS
   @DF-RHF iter   9:  -227.84408589227823   -1.16650e-07   2.12953e-07 DIIS
   @DF-RHF iter  10:  -227.84408589609876   -3.82053e-09   5.61608e-08 DIIS
   @DF-RHF iter  11:  -227.84408589630254   -2.03784e-10   1.80147e-08 DIIS
   @DF-RHF iter  12:  -227.84408589632446   -2.19131e-11   4.26466e-09 DIIS
   @DF-RHF iter  13:  -227.84408589632631   -1.84741e-12   8.93569e-10 DIIS
   @DF-RHF iter  14:  -227.84408589632608    2.27374e-13   2.86710e-10 DIIS
   @DF-RHF iter  15:  -227.84408589632596    1.13687e-13   1.08059e-10 DIIS
   @DF-RHF iter  16:  -227.84408589632613   -1.70530e-13   2.86098e-11 DIIS
  Energy and wave function converged.


  ==> Post-Iterations <==

    Orbital Energies [Eh]
    ---------------------

    Doubly Occupied:                                                      

       1A    -20.629476     2A    -20.552804     3A    -11.396108  
       4A    -11.250979     5A     -1.475853     6A     -1.357486  
       7A     -1.032999     8A     -0.837930     9A     -0.703065  
      10A     -0.688465    11A     -0.657749    12A     -0.576538  
      13A     -0.569697    14A     -0.561403    15A     -0.475343  
      16A     -0.452434  

    Virtual:                                                              

      17A      0.025026    18A      0.032214    19A      0.045627  
      20A      0.047081    21A      0.055084    22A      0.055797  
      23A      0.056799    24A      0.064645    25A      0.085662  
      26A      0.098769    27A      0.104843    28A      0.112454  
      29A      0.117323    30A      0.117638    31A      0.117857  
      32A      0.140545    33A      0.140657    34A      0.141635  
      35A      0.147122    36A      0.151976    37A      0.156356  
      38A      0.164577    39A      0.171320    40A      0.176626  
      41A      0.196303    42A      0.205879    43A      0.209237  
      44A      0.214854    45A      0.226535    46A      0.233376  
      47A      0.234963    48A      0.244324    49A      0.260538  
      50A      0.265071    51A      0.270849    52A      0.276950  
      53A      0.285711    54A      0.290295    55A      0.295802  
      56A      0.319834    57A      0.322781    58A      0.332559  
      59A      0.336492    60A      0.347275    61A      0.369734  
      62A      0.370652    63A      0.378870    64A      0.394119  
      65A      0.399568    66A      0.401429    67A      0.410051  
      68A      0.426690    69A      0.431412    70A      0.438187  
      71A      0.438218    72A      0.442006    73A      0.460698  
      74A      0.475555    75A      0.490495    76A      0.492357  
      77A      0.497563    78A      0.516791    79A      0.524763  
      80A      0.537262    81A      0.542014    82A      0.543850  
      83A      0.553487    84A      0.559907    85A      0.569740  
      86A      0.583791    87A      0.587079    88A      0.602101  
      89A      0.616589    90A      0.618231    91A      0.636518  
      92A      0.637347    93A      0.640311    94A      0.649301  
      95A      0.666705    96A      0.675406    97A      0.684210  
      98A      0.690226    99A      0.697190   100A      0.701098  
     101A      0.703571   102A      0.728396   103A      0.733289  
     104A      0.742748   105A      0.753919   106A      0.760595  
     107A      0.787425   108A      0.798460   109A      0.816054  
     110A      0.820386   111A      0.848508   112A      0.853581  
     113A      0.876833   114A      0.888480   115A      0.896675  
     116A      0.912403   117A      0.947894   118A      0.949697  
     119A      0.954375   120A      0.958389   121A      0.976182  
     122A      0.983144   123A      1.038240   124A      1.041547  
     125A      1.045466   126A      1.088819   127A      1.101839  
     128A      1.106685   129A      1.118367   130A      1.157520  
     131A      1.162839   132A      1.172141   133A      1.176359  
     134A      1.191145   135A      1.236033   136A      1.260914  
     137A      1.270508   138A      1.272187   139A      1.319230  
     140A      1.329839   141A      1.358181   142A      1.384366  
     143A      1.390440   144A      1.396516   145A      1.412451  
     146A      1.434946   147A      1.458613   148A      1.462795  
     149A      1.467912   150A      1.467976   151A      1.469788  
     152A      1.537811   153A      1.546014   154A      1.569567  
     155A      1.635048   156A      1.649915   157A      1.683974  
     158A      1.715101   159A      1.717751   160A      1.755800  
     161A      1.772884   162A      1.800256   163A      1.848039  
     164A      1.865503   165A      1.883175   166A      1.883811  
     167A      1.937322   168A      1.966454   169A      1.979453  
     170A      2.026298   171A      2.037642   172A      2.071074  
     173A      2.122848   174A      2.172049   175A      2.193137  
     176A      2.244771   177A      2.251210   178A      2.253643  
     179A      2.265251   180A      2.272354   181A      2.274238  
     182A      2.303295   183A      2.312246   184A      2.336918  
     185A      2.339422   186A      2.362437   187A      2.376844  
     188A      2.379604   189A      2.430330   190A      2.438663  
     191A      2.467460   192A      2.506137   193A      2.536303  
     194A      2.586298   195A      2.623585   196A      2.652307  
     197A      2.665002   198A      2.698643   199A      2.754679  
     200A      2.783681   201A      2.786530   202A      2.824553  
     203A      2.833647   204A      2.886121   205A      2.916318  
     206A      2.974291   207A      3.001602   208A      3.016316  
     209A      3.043058   210A      3.178935   211A      3.182791  
     212A      3.278956   213A      3.311065   214A      3.346124  
     215A      3.357250   216A      3.431876   217A      3.487086  
     218A      3.663162   219A      3.666705   220A      3.690423  
     221A      3.736441   222A      3.740460   223A      3.759662  
     224A      3.790324   225A      3.805251   226A      3.900417  
     227A      4.026515   228A      4.050368   229A      4.142340  
     230A      4.154057   231A      4.309953   232A      4.505370  
     233A      4.617300   234A      4.725341   235A      4.926342  
     236A      4.970182   237A      4.978420   238A      5.002110  
     239A      5.017283   240A      5.034152   241A      5.052912  
     242A      5.222439   243A      5.244627   244A      5.615631  
     245A      5.661644   246A      5.791759   247A      5.869489  
     248A      6.053245   249A      6.229311   250A      6.521209  
     251A      6.790706   252A      7.093411   253A     18.346692  
     254A     18.941193   255A     33.526001   256A     33.564004  

    Final Occupation by Irrep:
              A 
    DOCC [    16 ]

  @DF-RHF Final Energy:  -227.84408589632613

   => Energetics <=

    Nuclear Repulsion Energy =            121.7484302109716197
    One-Electron Energy =                -552.7483714446221938
    Two-Electron Energy =                 203.1558553373244536
    Total Energy =                       -227.8440858963261348

Computation Completed


Properties will be evaluated at   0.000000,   0.000000,   0.000000 [a0]

Properties computed using the SCF density matrix

  Nuclear Dipole Moment: [e a0]
     X:   -98.5925      Y:    72.5259      Z:    62.6670

  Electronic Dipole Moment: [e a0]
     X:    99.4206      Y:   -72.8088      Z:   -62.7502

  Dipole Moment: [e a0]
     X:     0.8281      Y:    -0.2829      Z:    -0.0832     Total:     0.8790

  Dipole Moment: [D]
     X:     2.1048      Y:    -0.7191      Z:    -0.2116     Total:     2.2342


*** tstop() called on ds1 at Wed Sep  1 14:08:14 2021
Module time:
	user time   =      10.30 seconds =       0.17 minutes
	system time =       0.18 seconds =       0.00 minutes
	total time  =          2 seconds =       0.03 minutes
Total time:
	user time   =      24.69 seconds =       0.41 minutes
	system time =       0.57 seconds =       0.01 minutes
	total time  =          6 seconds =       0.10 minutes

  //>>>>>>>>>>>>>>>>>>>>>>>>>>>>>>>>>>>//
  //            Monomer B HF           //
  //<<<<<<<<<<<<<<<<<<<<<<<<<<<<<<<<<<<//


*** tstart() called on ds1
*** at Wed Sep  1 14:08:14 2021

   => Loading Basis Set <=

    Name: AUG-CC-PVDZ
    Role: ORBITAL
    Keyword: BASIS
    atoms 1-2, 9-10  entry O          line   254 file /theoryfs2/ds/csargent/miniconda3/envs/cle/share/psi4/basis/aug-cc-pvdz.gbs 
    atoms 3-6, 11-14 entry H          line    40 file /theoryfs2/ds/csargent/miniconda3/envs/cle/share/psi4/basis/aug-cc-pvdz.gbs 
    atoms 7-8, 15-16 entry C          line   182 file /theoryfs2/ds/csargent/miniconda3/envs/cle/share/psi4/basis/aug-cc-pvdz.gbs 


         ---------------------------------------------------------
                                   SCF
               by Justin Turney, Rob Parrish, Andy Simmonett
                          and Daniel G. A. Smith
                              RHF Reference
                        6 Threads,   6675 MiB Core
         ---------------------------------------------------------

  ==> Geometry <==

    Molecular point group: c1
    Full point group: C1

    Geometry (in Bohr), charge = 0, multiplicity = 1:

       Center              X                  Y                   Z               Mass       
    ------------   -----------------  -----------------  -----------------  -----------------
      Gh(O)          -5.531022370000     2.939402900000     1.977626240000    15.994914619570
      Gh(O)          -2.407088860000     0.908177340000     0.049059090000    15.994914619570
      Gh(H)          -0.503048870000     1.375792050000     4.638809080000     1.007825032230
      Gh(H)           0.000000000000     4.251042850000     3.090722380000     1.007825032230
      Gh(H)          -2.389482150000     4.019167790000     5.401950410000     1.007825032230
      Gh(H)          -3.747714110000     0.471479300000    -1.215575120000     1.007825032230
      Gh(C)          -1.418597820000     2.985005000000     3.844051900000    12.000000000000
      Gh(C)          -3.322637810000     2.286288140000     1.912214130000    12.000000000000
         O          -30.537581900000   -24.112687990000     7.428635740000    15.994914619570
         O          -33.661515410000   -26.143913550000     5.500068580000    15.994914619570
         H          -35.565555400000   -25.676298840000    10.089818580000     1.007825032230
         H          -36.068604270000   -22.801048040000     8.541731880000     1.007825032230
         H          -33.679122120000   -23.032923100000    10.852959900000     1.007825032230
         H          -32.320890160000   -26.580611590000     4.235434380000     1.007825032230
         C          -34.650006440000   -24.067085890000     9.295061390000    12.000000000000
         C          -32.745966460000   -24.765802750000     7.363223630000    12.000000000000

  Running in c1 symmetry.

  Rotational constants: A =      0.04128  B =      0.00057  C =      0.00056 [cm^-1]
  Rotational constants: A =   1237.40357  B =     17.08399  C =     16.91244 [MHz]
  Nuclear repulsion =  121.748430243715433

  Charge       = 0
  Multiplicity = 1
  Electrons    = 32
  Nalpha       = 16
  Nbeta        = 16

  ==> Algorithm <==

  SCF Algorithm Type is DF.
  DIIS enabled.
  MOM disabled.
  Fractional occupation disabled.
  Guess Type is SAD.
  Energy threshold   = 1.00e-10
  Density threshold  = 1.00e-10
  Integral threshold = 1.00e-12

  ==> Primary Basis <==

  Basis Set: AUG-CC-PVDZ
    Blend: AUG-CC-PVDZ
    Number of shells: 112
    Number of basis functions: 256
    Number of Cartesian functions: 272
    Spherical Harmonics?: true
    Max angular momentum: 2

   => Loading Basis Set <=

    Name: (AUG-CC-PVDZ AUX)
    Role: JKFIT
    Keyword: DF_BASIS_SCF
    atoms 1-2, 9-10  entry O          line   270 file /theoryfs2/ds/csargent/miniconda3/envs/cle/share/psi4/basis/aug-cc-pvdz-jkfit.gbs 
    atoms 3-6, 11-14 entry H          line    70 file /theoryfs2/ds/csargent/miniconda3/envs/cle/share/psi4/basis/aug-cc-pvdz-jkfit.gbs 
    atoms 7-8, 15-16 entry C          line   154 file /theoryfs2/ds/csargent/miniconda3/envs/cle/share/psi4/basis/aug-cc-pvdz-jkfit.gbs 

  ==> Integral Setup <==

  ==> DiskDFJK: Density-Fitted J/K Matrices <==

    J tasked:                  Yes
    K tasked:                  Yes
    wK tasked:                  No
    OpenMP threads:              6
    Integrals threads:           6
    Memory [MiB]:             5006
    Algorithm:                Core
    Integral Cache:           LOAD
    Schwarz Cutoff:          1E-12
    Fitting Condition:       1E-10

   => Auxiliary Basis Set <=

  Basis Set: (AUG-CC-PVDZ AUX)
    Blend: AUG-CC-PVDZ-JKFIT
    Number of shells: 320
    Number of basis functions: 944
    Number of Cartesian functions: 1088
    Spherical Harmonics?: true
    Max angular momentum: 3

  Minimum eigenvalue in the overlap matrix is 1.0277546569E-04.
  Reciprocal condition number of the overlap matrix is 9.6539166774E-06.
    Using symmetric orthogonalization.

  ==> Pre-Iterations <==

  SCF Guess: Superposition of Atomic Densities via on-the-fly atomic UHF (no occupation information).

   -------------------------
    Irrep   Nso     Nmo    
   -------------------------
     A        256     256 
   -------------------------
    Total     256     256
   -------------------------

  ==> Iterations <==

                           Total Energy        Delta E     RMS |[F,P]|

   @DF-RHF iter SAD:  -226.98992943202728   -2.26990e+02   0.00000e+00 
   @DF-RHF iter   1:  -227.68091168173981   -6.90982e-01   2.28211e-03 DIIS
   @DF-RHF iter   2:  -227.80091445480099   -1.20003e-01   1.32478e-03 DIIS
   @DF-RHF iter   3:  -227.84131987394497   -4.04054e-02   2.33581e-04 DIIS
   @DF-RHF iter   4:  -227.84355633749030   -2.23646e-03   1.03339e-04 DIIS
   @DF-RHF iter   5:  -227.84403723849510   -4.80901e-04   2.42136e-05 DIIS
   @DF-RHF iter   6:  -227.84407440649244   -3.71680e-05   1.17797e-05 DIIS
   @DF-RHF iter   7:  -227.84408419461829   -9.78813e-06   3.84272e-06 DIIS
   @DF-RHF iter   8:  -227.84408577620522   -1.58159e-06   1.01577e-06 DIIS
   @DF-RHF iter   9:  -227.84408589285533   -1.16650e-07   2.12954e-07 DIIS
   @DF-RHF iter  10:  -227.84408589667592   -3.82059e-09   5.61608e-08 DIIS
   @DF-RHF iter  11:  -227.84408589687948   -2.03556e-10   1.80147e-08 DIIS
   @DF-RHF iter  12:  -227.84408589690139   -2.19131e-11   4.26466e-09 DIIS
   @DF-RHF iter  13:  -227.84408589690293   -1.53477e-12   8.93569e-10 DIIS
   @DF-RHF iter  14:  -227.84408589690321   -2.84217e-13   2.86710e-10 DIIS
   @DF-RHF iter  15:  -227.84408589690324   -2.84217e-14   1.08059e-10 DIIS
   @DF-RHF iter  16:  -227.84408589690332   -8.52651e-14   2.86099e-11 DIIS
  Energy and wave function converged.


  ==> Post-Iterations <==

    Orbital Energies [Eh]
    ---------------------

    Doubly Occupied:                                                      

       1A    -20.629476     2A    -20.552804     3A    -11.396108  
       4A    -11.250979     5A     -1.475853     6A     -1.357486  
       7A     -1.032999     8A     -0.837930     9A     -0.703065  
      10A     -0.688465    11A     -0.657749    12A     -0.576538  
      13A     -0.569697    14A     -0.561403    15A     -0.475343  
      16A     -0.452434  

    Virtual:                                                              

      17A      0.025303    18A      0.032214    19A      0.045627  
      20A      0.047389    21A      0.055084    22A      0.056071  
      23A      0.057024    24A      0.064645    25A      0.085955  
      26A      0.098769    27A      0.105136    28A      0.112755  
      29A      0.117323    30A      0.117857    31A      0.117867  
      32A      0.140545    33A      0.140916    34A      0.141894  
      35A      0.147401    36A      0.151976    37A      0.156356  
      38A      0.164577    39A      0.171320    40A      0.176920  
      41A      0.196303    42A      0.206192    43A      0.209237  
      44A      0.215156    45A      0.226841    46A      0.233376  
      47A      0.234963    48A      0.244628    49A      0.260850  
      50A      0.265374    51A      0.270849    52A      0.277249  
      53A      0.285999    54A      0.290295    55A      0.295802  
      56A      0.319834    57A      0.322781    58A      0.332790  
      59A      0.336773    60A      0.347275    61A      0.369987  
      62A      0.370652    63A      0.378870    64A      0.394119  
      65A      0.399818    66A      0.401429    67A      0.410307  
      68A      0.426690    69A      0.431690    70A      0.438218  
      71A      0.438446    72A      0.442006    73A      0.461022  
      74A      0.475555    75A      0.490799    76A      0.492357  
      77A      0.497849    78A      0.517086    79A      0.524763  
      80A      0.537262    81A      0.542332    82A      0.544118  
      83A      0.553487    84A      0.560177    85A      0.569740  
      86A      0.583791    87A      0.587345    88A      0.602101  
      89A      0.616886    90A      0.618231    91A      0.636807  
      92A      0.637624    93A      0.640311    94A      0.649301  
      95A      0.666705    96A      0.675694    97A      0.684210  
      98A      0.690493    99A      0.697190   100A      0.701361  
     101A      0.703571   102A      0.728647   103A      0.733289  
     104A      0.742748   105A      0.754199   106A      0.760853  
     107A      0.787699   108A      0.798460   109A      0.816308  
     110A      0.820647   111A      0.848772   112A      0.853581  
     113A      0.876833   114A      0.888742   115A      0.896955  
     116A      0.912403   117A      0.948168   118A      0.949697  
     119A      0.954375   120A      0.958671   121A      0.976467  
     122A      0.983144   123A      1.038527   124A      1.041547  
     125A      1.045770   126A      1.088819   127A      1.101839  
     128A      1.106974   129A      1.118367   130A      1.157520  
     131A      1.163143   132A      1.172141   133A      1.176359  
     134A      1.191449   135A      1.236033   136A      1.261225  
     137A      1.270819   138A      1.272187   139A      1.319230  
     140A      1.330142   141A      1.358181   142A      1.384675  
     143A      1.390440   144A      1.396830   145A      1.412451  
     146A      1.435249   147A      1.458930   148A      1.462795  
     149A      1.467976   150A      1.468222   151A      1.470094  
     152A      1.538117   153A      1.546014   154A      1.569874  
     155A      1.635048   156A      1.649915   157A      1.684273  
     158A      1.715101   159A      1.718051   160A      1.755800  
     161A      1.772884   162A      1.800561   163A      1.848039  
     164A      1.865503   165A      1.883414   166A      1.883811  
     167A      1.937584   168A      1.966454   169A      1.979453  
     170A      2.026298   171A      2.037642   172A      2.071336  
     173A      2.122848   174A      2.172049   175A      2.193137  
     176A      2.244771   177A      2.251461   178A      2.253643  
     179A      2.265508   180A      2.272354   181A      2.274537  
     182A      2.303551   183A      2.312246   184A      2.337148  
     185A      2.339688   186A      2.362705   187A      2.377132  
     188A      2.379604   189A      2.430330   190A      2.438663  
     191A      2.467756   192A      2.506454   193A      2.536303  
     194A      2.586582   195A      2.623585   196A      2.652307  
     197A      2.665294   198A      2.698906   199A      2.754941  
     200A      2.783681   201A      2.786803   202A      2.824805  
     203A      2.833647   204A      2.886121   205A      2.916608  
     206A      2.974291   207A      3.001602   208A      3.016316  
     209A      3.043334   210A      3.178935   211A      3.183060  
     212A      3.279219   213A      3.311333   214A      3.346124  
     215A      3.357516   216A      3.432163   217A      3.487345  
     218A      3.663443   219A      3.666705   220A      3.690423  
     221A      3.736441   222A      3.740769   223A      3.759662  
     224A      3.790324   225A      3.805251   226A      3.900417  
     227A      4.026810   228A      4.050368   229A      4.142340  
     230A      4.154380   231A      4.309953   232A      4.505675  
     233A      4.617609   234A      4.725613   235A      4.926651  
     236A      4.970485   237A      4.978734   238A      5.002417  
     239A      5.017591   240A      5.034463   241A      5.053169  
     242A      5.222728   243A      5.244906   244A      5.615949  
     245A      5.661956   246A      5.792075   247A      5.869793  
     248A      6.053553   249A      6.229615   250A      6.521526  
     251A      6.791021   252A      7.093721   253A     18.346963  
     254A     18.941470   255A     33.526306   256A     33.564324  

    Final Occupation by Irrep:
              A 
    DOCC [    16 ]

  @DF-RHF Final Energy:  -227.84408589690332

   => Energetics <=

    Nuclear Repulsion Energy =            121.7484302437154327
    One-Electron Energy =                -552.7483715084840696
    Two-Electron Energy =                 203.1558553678652856
    Total Energy =                       -227.8440858969033229

Computation Completed


Properties will be evaluated at   0.000000,   0.000000,   0.000000 [a0]

Properties computed using the SCF density matrix

  Nuclear Dipole Moment: [e a0]
     X: -1055.6028      Y:  -793.1410      Z:   237.0993

  Electronic Dipole Moment: [e a0]
     X:  1054.7747      Y:   792.8581      Z:  -237.1825

  Dipole Moment: [e a0]
     X:    -0.8281      Y:    -0.2829      Z:    -0.0832     Total:     0.8790

  Dipole Moment: [D]
     X:    -2.1048      Y:    -0.7191      Z:    -0.2116     Total:     2.2342


*** tstop() called on ds1 at Wed Sep  1 14:08:16 2021
Module time:
	user time   =      10.34 seconds =       0.17 minutes
	system time =       0.17 seconds =       0.00 minutes
	total time  =          2 seconds =       0.03 minutes
Total time:
	user time   =      35.06 seconds =       0.58 minutes
	system time =       0.74 seconds =       0.01 minutes
	total time  =          8 seconds =       0.13 minutes
  Constructing Basis Sets for SAPT...

   => Loading Basis Set <=

    Name: (AUG-CC-PVDZ AUX)
    Role: RIFIT
    Keyword: DF_BASIS_SAPT
    atoms 1-2, 9-10  entry O          line   204 file /theoryfs2/ds/csargent/miniconda3/envs/cle/share/psi4/basis/aug-cc-pvdz-ri.gbs 
    atoms 3-6, 11-14 entry H          line    30 file /theoryfs2/ds/csargent/miniconda3/envs/cle/share/psi4/basis/aug-cc-pvdz-ri.gbs 
    atoms 7-8, 15-16 entry C          line   112 file /theoryfs2/ds/csargent/miniconda3/envs/cle/share/psi4/basis/aug-cc-pvdz-ri.gbs 


  //>>>>>>>>>>>>>>>>>>>>>>>>>>>>>>>>>>>//
  //               SAPT0               //
  //<<<<<<<<<<<<<<<<<<<<<<<<<<<<<<<<<<<//


*** tstart() called on ds1
*** at Wed Sep  1 14:08:16 2021

        SAPT0  
    Ed Hohenstein
     6 June 2009

      Orbital Information
  --------------------------
    NSO        =       256
    NMO        =       256
    NRI        =       760
    NOCC A     =        16
    NOCC B     =        16
    FOCC A     =         4
    FOCC B     =         4
    NVIR A     =       240
    NVIR B     =       240

    Elst10,r            =     0.000007252983 [Eh]
    Exch10              =    -0.000000000000 [Eh]
    Exch10 (S^2)        =    -0.000000000000 [Eh]

    Iter     Energy [mEh]          dE [mEh]         Residual      Time [s]
       1      -0.00001069       0.000010694       0.025235382             0
       2      -0.00001043      -0.000000262       0.008077694             0
       3      -0.00001102       0.000000583       0.003815209             0
       4      -0.00001125       0.000000239       0.000659780             0
       5      -0.00001121      -0.000000043       0.000262583             0
       6      -0.00001121      -0.000000000       0.000108715             0
       7      -0.00001121       0.000000003       0.000034037             0
       8      -0.00001121       0.000000000       0.000011069             1
       9      -0.00001121      -0.000000000       0.000003062             1
      10      -0.00001121      -0.000000000       0.000000992             1

    CHF Iterations converged


    Iter     Energy [mEh]          dE [mEh]         Residual      Time [s]
       1      -0.00000455       0.000004547       0.016719430             0
       2      -0.00000452      -0.000000031       0.006104219             0
       3      -0.00000479       0.000000271       0.002559861             0
       4      -0.00000489       0.000000107       0.000450808             0
       5      -0.00000488      -0.000000014       0.000243036             0
       6      -0.00000488      -0.000000004       0.000081890             0
       7      -0.00000488       0.000000002       0.000027230             0
       8      -0.00000488       0.000000000       0.000007247             0
       9      -0.00000488      -0.000000000       0.000002416             0
      10      -0.00000488      -0.000000000       0.000000877             0

    CHF Iterations converged

    Ind20,r (A<-B)      =    -0.000000011213 [Eh]
    Ind20,r (B<-A)      =    -0.000000004878 [Eh]
    Ind20,r             =    -0.000000016091 [Eh]
    Exch-Ind20,r (A<-B) =     0.000000000000 [Eh]
    Exch-Ind20,r (B<-A) =     0.000000000000 [Eh]
    Exch-Ind20,r        =     0.000000000000 [Eh]
    Disp20              =    -0.000000119049 [Eh]
    Disp20 (SS)         =    -0.000000059525 [Eh]
    Disp20 (OS)         =    -0.000000059525 [Eh]
    Exch-Disp20         =    -0.000000000000 [Eh]
    Exch-Disp20 (SS)    =    -0.000000000000 [Eh]
    Exch-Disp20 (OS)    =     0.000000000000 [Eh]

    SAPT Results 
  --------------------------------------------------------------------------------------------------------
    Electrostatics                  0.00725298 [mEh]       0.00455132 [kcal/mol]       0.01904270 [kJ/mol]
      Elst10,r                      0.00725298 [mEh]       0.00455132 [kcal/mol]       0.01904270 [kJ/mol]

    Exchange                       -0.00000000 [mEh]      -0.00000000 [kcal/mol]      -0.00000000 [kJ/mol]
      Exch10                       -0.00000000 [mEh]      -0.00000000 [kcal/mol]      -0.00000000 [kJ/mol]
      Exch10(S^2)                  -0.00000000 [mEh]      -0.00000000 [kcal/mol]      -0.00000000 [kJ/mol]

    Induction                      -0.00002270 [mEh]      -0.00001424 [kcal/mol]      -0.00005959 [kJ/mol]
      Ind20,r                      -0.00001609 [mEh]      -0.00001010 [kcal/mol]      -0.00004225 [kJ/mol]
      Exch-Ind20,r                  0.00000000 [mEh]       0.00000000 [kcal/mol]       0.00000000 [kJ/mol]
      delta HF,r (2)               -0.00000660 [mEh]      -0.00000414 [kcal/mol]      -0.00001734 [kJ/mol]

    Dispersion                     -0.00011905 [mEh]      -0.00007470 [kcal/mol]      -0.00031256 [kJ/mol]
      Disp20                       -0.00011905 [mEh]      -0.00007470 [kcal/mol]      -0.00031256 [kJ/mol]
      Exch-Disp20                  -0.00000000 [mEh]      -0.00000000 [kcal/mol]      -0.00000000 [kJ/mol]
      Disp20 (SS)                  -0.00005952 [mEh]      -0.00003735 [kcal/mol]      -0.00015628 [kJ/mol]
      Disp20 (OS)                  -0.00005952 [mEh]      -0.00003735 [kcal/mol]      -0.00015628 [kJ/mol]
      Exch-Disp20 (SS)             -0.00000000 [mEh]      -0.00000000 [kcal/mol]      -0.00000000 [kJ/mol]
      Exch-Disp20 (OS)              0.00000000 [mEh]       0.00000000 [kcal/mol]       0.00000000 [kJ/mol]

  Total HF                          0.00723029 [mEh]       0.00453707 [kcal/mol]       0.01898312 [kJ/mol]
  Total SAPT0                       0.00711124 [mEh]       0.00446237 [kcal/mol]       0.01867055 [kJ/mol]

  Special recipe for scaled SAPT0 (see Manual):
    Electrostatics sSAPT0           0.00725298 [mEh]       0.00455132 [kcal/mol]       0.01904270 [kJ/mol]
    Exchange sSAPT0                -0.00000000 [mEh]      -0.00000000 [kcal/mol]      -0.00000000 [kJ/mol]
    Induction sSAPT0               -0.00002270 [mEh]      -0.00001424 [kcal/mol]      -0.00005959 [kJ/mol]
    Dispersion sSAPT0              -0.00011905 [mEh]      -0.00007470 [kcal/mol]      -0.00031256 [kJ/mol]
  Total sSAPT0                      0.00711124 [mEh]       0.00446237 [kcal/mol]       0.01867055 [kJ/mol]
  --------------------------------------------------------------------------------------------------------

*** tstop() called on ds1 at Wed Sep  1 14:08:22 2021
Module time:
	user time   =      26.16 seconds =       0.44 minutes
	system time =       2.26 seconds =       0.04 minutes
	total time  =          6 seconds =       0.10 minutes
Total time:
	user time   =      61.95 seconds =       1.03 minutes
	system time =       3.03 seconds =       0.05 minutes
	total time  =         14 seconds =       0.23 minutes


Warning! sapt0 does not have an associated derived wavefunction.The returned wavefunction is the dimer SCF wavefunction.


    Psi4 stopped on: Wednesday, 01 September 2021 02:08PM
    Psi4 wall time for execution: 0:00:13.54

*** Psi4 exiting successfully. Buy a developer a beer!
