
    -----------------------------------------------------------------------
          Psi4: An Open-Source Ab Initio Electronic Structure Package
                               Psi4 1.4rc3 

                         Git: Rev {HEAD} 080dba6 


    D. G. A. Smith, L. A. Burns, A. C. Simmonett, R. M. Parrish,
    M. C. Schieber, R. Galvelis, P. Kraus, H. Kruse, R. Di Remigio,
    A. Alenaizan, A. M. James, S. Lehtola, J. P. Misiewicz, M. Scheurer,
    R. A. Shaw, J. B. Schriber, Y. Xie, Z. L. Glick, D. A. Sirianni,
    J. S. O'Brien, J. M. Waldrop, A. Kumar, E. G. Hohenstein,
    B. P. Pritchard, B. R. Brooks, H. F. Schaefer III, A. Yu. Sokolov,
    K. Patkowski, A. E. DePrince III, U. Bozkaya, R. A. King,
    F. A. Evangelista, J. M. Turney, T. D. Crawford, C. D. Sherrill,
    J. Chem. Phys. 152(18) 184108 (2020). https://doi.org/10.1063/5.0006002

                            Additional Code Authors
    E. T. Seidl, C. L. Janssen, E. F. Valeev, M. L. Leininger,
    J. F. Gonthier, R. M. Richard, H. R. McAlexander, M. Saitow, X. Wang,
    P. Verma, and M. H. Lechner

             Previous Authors, Complete List of Code Contributors,
                       and Citations for Specific Modules
    https://github.com/psi4/psi4/blob/master/codemeta.json
    https://github.com/psi4/psi4/graphs/contributors
    http://psicode.org/psi4manual/master/introduction.html#citing-psifour

    -----------------------------------------------------------------------


    Psi4 started on: Wednesday, 01 September 2021 02:25PM

    Process ID: 21720
    Host:       ds1
    PSIDATADIR: /theoryfs2/ds/csargent/miniconda3/envs/cle/share/psi4
    Memory:     500.0 MiB
    Threads:    6
    
  ==> Input File <==

--------------------------------------------------------------------------
# PSI4 file produced by CrystaLattE

# Generated from:               acetic_acid.xyz
# Psithon input for N-mer:      2mer-0+226
# Number of atoms per monomer:  [8, 8]
# Number of replicas:           2
# COM priority:                 3.715427209337e-05
# Minimum COM separations:      15.859 
# Separation priority:          5.916297910434e-05
# Minimum monomer separations:  13.581 
# Cutoff priority:              2.305331472015e-06
# Nuclear repulsion energy:     277.5536778100744

memory 7 GB

molecule Dimer_0_226 {
  O           -5.53102237       2.93940290       1.97762624 
  O           -2.40708886       0.90817734       0.04905909 
  H           -0.50304887       1.37579205       4.63880908 
  H            0.00000000       4.25104285       3.09072238 
  H           -2.38948215       4.01916779       5.40195041 
  H           -3.74771411       0.47147930      -1.21557512 
  C           -1.41859782       2.98500500       3.84405190 
  C           -3.32263781       2.28628814       1.91221413 
--
  O           -5.38513820      14.53315614     -25.27742123 
  O           -8.50907170      12.50193058     -27.20598839 
  H          -10.41311169      12.96954529     -22.61623840 
  H          -10.91616057      15.84479609     -24.16432509 
  H           -8.52667842      15.61292103     -21.85309707 
  H           -7.16844646      12.06523254     -28.47062259 
  C           -9.49756274      14.57875824     -23.41099558 
  C           -7.59352275      13.88004138     -25.34283335 
units = au
no_com
no_reorient
}

set {
  e_convergence 10
  d_convergence 10
  scf_type df
  mp2_type df
  cc_type df
  freeze_core true
}

energy('sapt0/aug-cc-pvdz')

--------------------------------------------------------------------------

  Memory set to   6.519 GiB by Python driver.

Scratch directory: /scratch/csargent/psi4.17562.33784/

Scratch directory: /scratch/csargent/psi4.17562.33784/

  //>>>>>>>>>>>>>>>>>>>>>>>>>>>>>>>>>>>//
  //              Dimer HF             //
  //<<<<<<<<<<<<<<<<<<<<<<<<<<<<<<<<<<<//


*** tstart() called on ds1
*** at Wed Sep  1 14:25:43 2021

   => Loading Basis Set <=

    Name: AUG-CC-PVDZ
    Role: ORBITAL
    Keyword: BASIS
    atoms 1-2, 9-10  entry O          line   254 file /theoryfs2/ds/csargent/miniconda3/envs/cle/share/psi4/basis/aug-cc-pvdz.gbs 
    atoms 3-6, 11-14 entry H          line    40 file /theoryfs2/ds/csargent/miniconda3/envs/cle/share/psi4/basis/aug-cc-pvdz.gbs 
    atoms 7-8, 15-16 entry C          line   182 file /theoryfs2/ds/csargent/miniconda3/envs/cle/share/psi4/basis/aug-cc-pvdz.gbs 


         ---------------------------------------------------------
                                   SCF
               by Justin Turney, Rob Parrish, Andy Simmonett
                          and Daniel G. A. Smith
                              RHF Reference
                        6 Threads,   6675 MiB Core
         ---------------------------------------------------------

  ==> Geometry <==

    Molecular point group: c1
    Full point group: C1

    Geometry (in Bohr), charge = 0, multiplicity = 1:

       Center              X                  Y                   Z               Mass       
    ------------   -----------------  -----------------  -----------------  -----------------
         O           -5.531022370000     2.939402900000     1.977626240000    15.994914619570
         O           -2.407088860000     0.908177340000     0.049059090000    15.994914619570
         H           -0.503048870000     1.375792050000     4.638809080000     1.007825032230
         H            0.000000000000     4.251042850000     3.090722380000     1.007825032230
         H           -2.389482150000     4.019167790000     5.401950410000     1.007825032230
         H           -3.747714110000     0.471479300000    -1.215575120000     1.007825032230
         C           -1.418597820000     2.985005000000     3.844051900000    12.000000000000
         C           -3.322637810000     2.286288140000     1.912214130000    12.000000000000
         O           -5.385138200000    14.533156140000   -25.277421230000    15.994914619570
         O           -8.509071700000    12.501930580000   -27.205988390000    15.994914619570
         H          -10.413111690000    12.969545290000   -22.616238400000     1.007825032230
         H          -10.916160570000    15.844796090000   -24.164325090000     1.007825032230
         H           -8.526678420000    15.612921030000   -21.853097070000     1.007825032230
         H           -7.168446460000    12.065232540000   -28.470622590000     1.007825032230
         C           -9.497562740000    14.578758240000   -23.410995580000    12.000000000000
         C           -7.593522750000    13.880041380000   -25.342833350000    12.000000000000

  Running in c1 symmetry.

  Rotational constants: A =      0.03597  B =      0.00111  C =      0.00109 [cm^-1]
  Rotational constants: A =   1078.20628  B =     33.37228  C =     32.65037 [MHz]
  Nuclear repulsion =  277.553678011365378

  Charge       = 0
  Multiplicity = 1
  Electrons    = 64
  Nalpha       = 32
  Nbeta        = 32

  ==> Algorithm <==

  SCF Algorithm Type is DF.
  DIIS enabled.
  MOM disabled.
  Fractional occupation disabled.
  Guess Type is SAD.
  Energy threshold   = 1.00e-10
  Density threshold  = 1.00e-10
  Integral threshold = 1.00e-12

  ==> Primary Basis <==

  Basis Set: AUG-CC-PVDZ
    Blend: AUG-CC-PVDZ
    Number of shells: 112
    Number of basis functions: 256
    Number of Cartesian functions: 272
    Spherical Harmonics?: true
    Max angular momentum: 2

   => Loading Basis Set <=

    Name: (AUG-CC-PVDZ AUX)
    Role: JKFIT
    Keyword: DF_BASIS_SCF
    atoms 1-2, 9-10  entry O          line   270 file /theoryfs2/ds/csargent/miniconda3/envs/cle/share/psi4/basis/aug-cc-pvdz-jkfit.gbs 
    atoms 3-6, 11-14 entry H          line    70 file /theoryfs2/ds/csargent/miniconda3/envs/cle/share/psi4/basis/aug-cc-pvdz-jkfit.gbs 
    atoms 7-8, 15-16 entry C          line   154 file /theoryfs2/ds/csargent/miniconda3/envs/cle/share/psi4/basis/aug-cc-pvdz-jkfit.gbs 

  ==> Integral Setup <==

  ==> DiskDFJK: Density-Fitted J/K Matrices <==

    J tasked:                  Yes
    K tasked:                  Yes
    wK tasked:                  No
    OpenMP threads:              6
    Integrals threads:           6
    Memory [MiB]:             5006
    Algorithm:                Core
    Integral Cache:           SAVE
    Schwarz Cutoff:          1E-12
    Fitting Condition:       1E-10

   => Auxiliary Basis Set <=

  Basis Set: (AUG-CC-PVDZ AUX)
    Blend: AUG-CC-PVDZ-JKFIT
    Number of shells: 320
    Number of basis functions: 944
    Number of Cartesian functions: 1088
    Spherical Harmonics?: true
    Max angular momentum: 3

  Minimum eigenvalue in the overlap matrix is 1.0275858058E-04.
  Reciprocal condition number of the overlap matrix is 9.6523267062E-06.
    Using symmetric orthogonalization.

  ==> Pre-Iterations <==

  SCF Guess: Superposition of Atomic Densities via on-the-fly atomic UHF (no occupation information).

   -------------------------
    Irrep   Nso     Nmo    
   -------------------------
     A        256     256 
   -------------------------
    Total     256     256
   -------------------------

  ==> Iterations <==

                           Total Energy        Delta E     RMS |[F,P]|

   @DF-RHF iter SAD:  -453.97985887508105   -4.53980e+02   0.00000e+00 
   @DF-RHF iter   1:  -455.36187474063365   -1.38202e+00   3.22732e-03 DIIS
   @DF-RHF iter   2:  -455.60188325207150   -2.40009e-01   1.87319e-03 DIIS
   @DF-RHF iter   3:  -455.68266714495138   -8.07839e-02   3.30201e-04 DIIS
   @DF-RHF iter   4:  -455.68713814187691   -4.47100e-03   1.46085e-04 DIIS
   @DF-RHF iter   5:  -455.68809921387339   -9.61072e-04   3.42295e-05 DIIS
   @DF-RHF iter   6:  -455.68817349015922   -7.42763e-05   1.66532e-05 DIIS
   @DF-RHF iter   7:  -455.68819304569627   -1.95555e-05   5.43086e-06 DIIS
   @DF-RHF iter   8:  -455.68819620591461   -3.16022e-06   1.43614e-06 DIIS
   @DF-RHF iter   9:  -455.68819643910280   -2.33188e-07   3.01272e-07 DIIS
   @DF-RHF iter  10:  -455.68819644675182   -7.64902e-09   7.94356e-08 DIIS
   @DF-RHF iter  11:  -455.68819644715956   -4.07738e-10   2.54908e-08 DIIS
   @DF-RHF iter  12:  -455.68819644720378   -4.42242e-11   6.06759e-09 DIIS
   @DF-RHF iter  13:  -455.68819644720702   -3.24007e-12   1.42192e-09 DIIS
   @DF-RHF iter  14:  -455.68819644720708   -5.68434e-14   7.69659e-10 DIIS
   @DF-RHF iter  15:  -455.68819644720747   -3.97904e-13   2.01261e-10 DIIS
   @DF-RHF iter  16:  -455.68819644720702    4.54747e-13   5.83036e-11 DIIS
  Energy and wave function converged.


  ==> Post-Iterations <==

    Orbital Energies [Eh]
    ---------------------

    Doubly Occupied:                                                      

       1A    -20.629448     2A    -20.629414     3A    -20.552796  
       4A    -20.552736     5A    -11.396091     6A    -11.396028  
       7A    -11.250908     8A    -11.250821     9A     -1.475830  
      10A     -1.475788    11A     -1.357476    12A     -1.357422  
      13A     -1.032942    14A     -1.032867    15A     -0.837891  
      16A     -0.837843    17A     -0.703055    18A     -0.703000  
      19A     -0.688426    20A     -0.688364    21A     -0.657709  
      22A     -0.657656    23A     -0.576507    24A     -0.576449  
      25A     -0.569636    26A     -0.569571    27A     -0.561340  
      28A     -0.561254    29A     -0.475340    30A     -0.475285  
      31A     -0.452424    32A     -0.452360  

    Virtual:                                                              

      33A      0.032276    34A      0.032358    35A      0.045621  
      36A      0.045778    37A      0.055244    38A      0.055293  
      39A      0.064702    40A      0.064862    41A      0.098795  
      42A      0.098933    43A      0.117366    44A      0.117398  
      45A      0.117866    46A      0.117955    47A      0.140544  
      48A      0.140658    49A      0.152094    50A      0.152137  
      51A      0.156418    52A      0.156525    53A      0.164633  
      54A      0.164734    55A      0.171342    56A      0.171429  
      57A      0.196350    58A      0.196437    59A      0.209252  
      60A      0.209294    61A      0.233431    62A      0.233449  
      63A      0.234997    64A      0.235059    65A      0.270894  
      66A      0.270991    67A      0.290269    68A      0.290315  
      69A      0.295884    70A      0.295944    71A      0.319833  
      72A      0.319912    73A      0.322771    74A      0.322809  
      75A      0.347332    76A      0.347411    77A      0.370650  
      78A      0.370733    79A      0.378942    80A      0.379019  
      81A      0.394151    82A      0.394227    83A      0.401458  
      84A      0.401550    85A      0.426781    86A      0.426826  
      87A      0.438263    88A      0.438346    89A      0.442097  
      90A      0.442170    91A      0.475575    92A      0.475631  
      93A      0.492434    94A      0.492494    95A      0.524839  
      96A      0.524913    97A      0.537283    98A      0.537375  
      99A      0.553540   100A      0.553641   101A      0.569798  
     102A      0.569895   103A      0.583856   104A      0.583939  
     105A      0.602136   106A      0.602189   107A      0.618273  
     108A      0.618355   109A      0.640363   110A      0.640425  
     111A      0.649361   112A      0.649436   113A      0.666765  
     114A      0.666835   115A      0.684252   116A      0.684329  
     117A      0.697235   118A      0.697302   119A      0.703634  
     120A      0.703726   121A      0.733341   122A      0.733401  
     123A      0.742792   124A      0.742863   125A      0.798528  
     126A      0.798614   127A      0.853618   128A      0.853685  
     129A      0.876844   130A      0.876901   131A      0.912430  
     132A      0.912483   133A      0.949742   134A      0.949789  
     135A      0.954412   136A      0.954476   137A      0.983176  
     138A      0.983239   139A      1.041581   140A      1.041631  
     141A      1.088884   142A      1.088957   143A      1.101901  
     144A      1.101983   145A      1.118412   146A      1.118493  
     147A      1.157544   148A      1.157587   149A      1.172176  
     150A      1.172228   151A      1.176399   152A      1.176462  
     153A      1.236085   154A      1.236123   155A      1.272194  
     156A      1.272254   157A      1.319234   158A      1.319288  
     159A      1.358193   160A      1.358257   161A      1.390445  
     162A      1.390532   163A      1.412499   164A      1.412571  
     165A      1.462795   166A      1.462851   167A      1.467988  
     168A      1.468036   169A      1.546070   170A      1.546145  
     171A      1.635088   172A      1.635143   173A      1.649952  
     174A      1.650005   175A      1.715140   176A      1.715200  
     177A      1.755844   178A      1.755910   179A      1.772945  
     180A      1.773027   181A      1.848060   182A      1.848122  
     183A      1.865562   184A      1.865633   185A      1.883888  
     186A      1.883971   187A      1.966499   188A      1.966548  
     189A      1.979471   190A      1.979531   191A      2.026344  
     192A      2.026420   193A      2.037678   194A      2.037736  
     195A      2.122881   196A      2.122940   197A      2.172101  
     198A      2.172162   199A      2.193183   200A      2.193253  
     201A      2.244830   202A      2.244910   203A      2.253690  
     204A      2.253756   205A      2.272382   206A      2.272449  
     207A      2.312286   208A      2.312354   209A      2.379662  
     210A      2.379734   211A      2.430365   212A      2.430425  
     213A      2.438719   214A      2.438792   215A      2.536353  
     216A      2.536423   217A      2.623620   218A      2.623685  
     219A      2.652372   220A      2.652457   221A      2.783730  
     222A      2.783809   223A      2.833694   224A      2.833764  
     225A      2.886183   226A      2.886258   227A      2.974341  
     228A      2.974398   229A      3.001656   230A      3.001729  
     231A      3.016357   232A      3.016427   233A      3.178971  
     234A      3.179022   235A      3.346141   236A      3.346204  
     237A      3.666735   238A      3.666767   239A      3.690451  
     240A      3.690485   241A      3.736459   242A      3.736503  
     243A      3.759664   244A      3.759721   245A      3.790332  
     246A      3.790386   247A      3.805253   248A      3.805311  
     249A      3.900432   250A      3.900478   251A      4.050379  
     252A      4.050432   253A      4.142343   254A      4.142400  
     255A      4.309981   256A      4.310019  

    Final Occupation by Irrep:
              A 
    DOCC [    32 ]

  @DF-RHF Final Energy:  -455.68819644720702

   => Energetics <=

    Nuclear Repulsion Energy =            277.5536780113653776
    One-Electron Energy =               -1173.6143950953578496
    Two-Electron Energy =                 440.3725206367854526
    Total Energy =                       -455.6881964472070194

Computation Completed


Properties will be evaluated at   0.000000,   0.000000,   0.000000 [a0]

Properties computed using the SCF density matrix

  Nuclear Dipole Moment: [e a0]
     X:  -349.3171      Y:   516.0519      Z:  -746.8275

  Electronic Dipole Moment: [e a0]
     X:   349.3174      Y:  -516.6171      Z:   746.6617

  Dipole Moment: [e a0]
     X:     0.0002      Y:    -0.5652      Z:    -0.1659     Total:     0.5891

  Dipole Moment: [D]
     X:     0.0006      Y:    -1.4367      Z:    -0.4216     Total:     1.4973


*** tstop() called on ds1 at Wed Sep  1 14:25:46 2021
Module time:
	user time   =      14.98 seconds =       0.25 minutes
	system time =       0.38 seconds =       0.01 minutes
	total time  =          3 seconds =       0.05 minutes
Total time:
	user time   =      14.98 seconds =       0.25 minutes
	system time =       0.38 seconds =       0.01 minutes
	total time  =          3 seconds =       0.05 minutes

  //>>>>>>>>>>>>>>>>>>>>>>>>>>>>>>>>>>>//
  //            Monomer A HF           //
  //<<<<<<<<<<<<<<<<<<<<<<<<<<<<<<<<<<<//


*** tstart() called on ds1
*** at Wed Sep  1 14:25:46 2021

   => Loading Basis Set <=

    Name: AUG-CC-PVDZ
    Role: ORBITAL
    Keyword: BASIS
    atoms 1-2, 9-10  entry O          line   254 file /theoryfs2/ds/csargent/miniconda3/envs/cle/share/psi4/basis/aug-cc-pvdz.gbs 
    atoms 3-6, 11-14 entry H          line    40 file /theoryfs2/ds/csargent/miniconda3/envs/cle/share/psi4/basis/aug-cc-pvdz.gbs 
    atoms 7-8, 15-16 entry C          line   182 file /theoryfs2/ds/csargent/miniconda3/envs/cle/share/psi4/basis/aug-cc-pvdz.gbs 


         ---------------------------------------------------------
                                   SCF
               by Justin Turney, Rob Parrish, Andy Simmonett
                          and Daniel G. A. Smith
                              RHF Reference
                        6 Threads,   6675 MiB Core
         ---------------------------------------------------------

  ==> Geometry <==

    Molecular point group: c1
    Full point group: C1

    Geometry (in Bohr), charge = 0, multiplicity = 1:

       Center              X                  Y                   Z               Mass       
    ------------   -----------------  -----------------  -----------------  -----------------
         O           -5.531022370000     2.939402900000     1.977626240000    15.994914619570
         O           -2.407088860000     0.908177340000     0.049059090000    15.994914619570
         H           -0.503048870000     1.375792050000     4.638809080000     1.007825032230
         H            0.000000000000     4.251042850000     3.090722380000     1.007825032230
         H           -2.389482150000     4.019167790000     5.401950410000     1.007825032230
         H           -3.747714110000     0.471479300000    -1.215575120000     1.007825032230
         C           -1.418597820000     2.985005000000     3.844051900000    12.000000000000
         C           -3.322637810000     2.286288140000     1.912214130000    12.000000000000
      Gh(O)          -5.385138200000    14.533156140000   -25.277421230000    15.994914619570
      Gh(O)          -8.509071700000    12.501930580000   -27.205988390000    15.994914619570
      Gh(H)         -10.413111690000    12.969545290000   -22.616238400000     1.007825032230
      Gh(H)         -10.916160570000    15.844796090000   -24.164325090000     1.007825032230
      Gh(H)          -8.526678420000    15.612921030000   -21.853097070000     1.007825032230
      Gh(H)          -7.168446460000    12.065232540000   -28.470622590000     1.007825032230
      Gh(C)          -9.497562740000    14.578758240000   -23.410995580000    12.000000000000
      Gh(C)          -7.593522750000    13.880041380000   -25.342833350000    12.000000000000

  Running in c1 symmetry.

  Rotational constants: A =      0.03597  B =      0.00111  C =      0.00109 [cm^-1]
  Rotational constants: A =   1078.20628  B =     33.37228  C =     32.65037 [MHz]
  Nuclear repulsion =  121.748430210971620

  Charge       = 0
  Multiplicity = 1
  Electrons    = 32
  Nalpha       = 16
  Nbeta        = 16

  ==> Algorithm <==

  SCF Algorithm Type is DF.
  DIIS enabled.
  MOM disabled.
  Fractional occupation disabled.
  Guess Type is SAD.
  Energy threshold   = 1.00e-10
  Density threshold  = 1.00e-10
  Integral threshold = 1.00e-12

  ==> Primary Basis <==

  Basis Set: AUG-CC-PVDZ
    Blend: AUG-CC-PVDZ
    Number of shells: 112
    Number of basis functions: 256
    Number of Cartesian functions: 272
    Spherical Harmonics?: true
    Max angular momentum: 2

   => Loading Basis Set <=

    Name: (AUG-CC-PVDZ AUX)
    Role: JKFIT
    Keyword: DF_BASIS_SCF
    atoms 1-2, 9-10  entry O          line   270 file /theoryfs2/ds/csargent/miniconda3/envs/cle/share/psi4/basis/aug-cc-pvdz-jkfit.gbs 
    atoms 3-6, 11-14 entry H          line    70 file /theoryfs2/ds/csargent/miniconda3/envs/cle/share/psi4/basis/aug-cc-pvdz-jkfit.gbs 
    atoms 7-8, 15-16 entry C          line   154 file /theoryfs2/ds/csargent/miniconda3/envs/cle/share/psi4/basis/aug-cc-pvdz-jkfit.gbs 

  ==> Integral Setup <==

  ==> DiskDFJK: Density-Fitted J/K Matrices <==

    J tasked:                  Yes
    K tasked:                  Yes
    wK tasked:                  No
    OpenMP threads:              6
    Integrals threads:           6
    Memory [MiB]:             5006
    Algorithm:                Core
    Integral Cache:           LOAD
    Schwarz Cutoff:          1E-12
    Fitting Condition:       1E-10

   => Auxiliary Basis Set <=

  Basis Set: (AUG-CC-PVDZ AUX)
    Blend: AUG-CC-PVDZ-JKFIT
    Number of shells: 320
    Number of basis functions: 944
    Number of Cartesian functions: 1088
    Spherical Harmonics?: true
    Max angular momentum: 3

  Minimum eigenvalue in the overlap matrix is 1.0275858058E-04.
  Reciprocal condition number of the overlap matrix is 9.6523267062E-06.
    Using symmetric orthogonalization.

  ==> Pre-Iterations <==

  SCF Guess: Superposition of Atomic Densities via on-the-fly atomic UHF (no occupation information).

   -------------------------
    Irrep   Nso     Nmo    
   -------------------------
     A        256     256 
   -------------------------
    Total     256     256
   -------------------------

  ==> Iterations <==

                           Total Energy        Delta E     RMS |[F,P]|

   @DF-RHF iter SAD:  -226.98992942944858   -2.26990e+02   0.00000e+00 
   @DF-RHF iter   1:  -227.68091168067897   -6.90982e-01   2.28211e-03 DIIS
   @DF-RHF iter   2:  -227.80091445368336   -1.20003e-01   1.32478e-03 DIIS
   @DF-RHF iter   3:  -227.84131987276388   -4.04054e-02   2.33581e-04 DIIS
   @DF-RHF iter   4:  -227.84355633627081   -2.23646e-03   1.03339e-04 DIIS
   @DF-RHF iter   5:  -227.84403723726658   -4.80901e-04   2.42136e-05 DIIS
   @DF-RHF iter   6:  -227.84407440526371   -3.71680e-05   1.17797e-05 DIIS
   @DF-RHF iter   7:  -227.84408419338871   -9.78812e-06   3.84272e-06 DIIS
   @DF-RHF iter   8:  -227.84408577497609   -1.58159e-06   1.01577e-06 DIIS
   @DF-RHF iter   9:  -227.84408589162641   -1.16650e-07   2.12954e-07 DIIS
   @DF-RHF iter  10:  -227.84408589544742   -3.82101e-09   5.61608e-08 DIIS
   @DF-RHF iter  11:  -227.84408589565084   -2.03414e-10   1.80147e-08 DIIS
   @DF-RHF iter  12:  -227.84408589567278   -2.19416e-11   4.26466e-09 DIIS
   @DF-RHF iter  13:  -227.84408589567454   -1.76215e-12   8.93569e-10 DIIS
   @DF-RHF iter  14:  -227.84408589567454    0.00000e+00   2.86711e-10 DIIS
   @DF-RHF iter  15:  -227.84408589567434    1.98952e-13   1.08058e-10 DIIS
   @DF-RHF iter  16:  -227.84408589567451   -1.70530e-13   2.86098e-11 DIIS
  Energy and wave function converged.


  ==> Post-Iterations <==

    Orbital Energies [Eh]
    ---------------------

    Doubly Occupied:                                                      

       1A    -20.629476     2A    -20.552804     3A    -11.396108  
       4A    -11.250979     5A     -1.475853     6A     -1.357486  
       7A     -1.032999     8A     -0.837930     9A     -0.703065  
      10A     -0.688465    11A     -0.657749    12A     -0.576538  
      13A     -0.569697    14A     -0.561403    15A     -0.475343  
      16A     -0.452434  

    Virtual:                                                              

      17A      0.024898    18A      0.032214    19A      0.045623  
      20A      0.046944    21A      0.055083    22A      0.055719  
      23A      0.056667    24A      0.064645    25A      0.085506  
      26A      0.098768    27A      0.104710    28A      0.112291  
      29A      0.117323    30A      0.117597    31A      0.117859  
      32A      0.140497    33A      0.140561    34A      0.141518  
      35A      0.147001    36A      0.151979    37A      0.156356  
      38A      0.164577    39A      0.171320    40A      0.176489  
      41A      0.196303    42A      0.205679    43A      0.209238  
      44A      0.214680    45A      0.226377    46A      0.233376  
      47A      0.234963    48A      0.244098    49A      0.260300  
      50A      0.264884    51A      0.270849    52A      0.276719  
      53A      0.285526    54A      0.290295    55A      0.295802  
      56A      0.319834    57A      0.322781    58A      0.332460  
      59A      0.336412    60A      0.347275    61A      0.369611  
      62A      0.370652    63A      0.378870    64A      0.394119  
      65A      0.399474    66A      0.401429    67A      0.409958  
      68A      0.426690    69A      0.431301    70A      0.438073  
      71A      0.438220    72A      0.442006    73A      0.460520  
      74A      0.475555    75A      0.490328    76A      0.492357  
      77A      0.497402    78A      0.516634    79A      0.524763  
      80A      0.537262    81A      0.541843    82A      0.543735  
      83A      0.553487    84A      0.559781    85A      0.569740  
      86A      0.583791    87A      0.586965    88A      0.602101  
      89A      0.616412    90A      0.618231    91A      0.636378  
      92A      0.637176    93A      0.640311    94A      0.649301  
      95A      0.666705    96A      0.675239    97A      0.684210  
      98A      0.690098    99A      0.697190   100A      0.700970  
     101A      0.703571   102A      0.728309   103A      0.733289  
     104A      0.742748   105A      0.753769   106A      0.760493  
     107A      0.787293   108A      0.798460   109A      0.815949  
     110A      0.820271   111A      0.848393   112A      0.853582  
     113A      0.876833   114A      0.888354   115A      0.896543  
     116A      0.912403   117A      0.947745   118A      0.949697  
     119A      0.954375   120A      0.958250   121A      0.976022  
     122A      0.983144   123A      1.038055   124A      1.041547  
     125A      1.045281   126A      1.088819   127A      1.101839  
     128A      1.106531   129A      1.118367   130A      1.157520  
     131A      1.162635   132A      1.172141   133A      1.176359  
     134A      1.190960   135A      1.236033   136A      1.260693  
     137A      1.270288   138A      1.272187   139A      1.319230  
     140A      1.329646   141A      1.358181   142A      1.384140  
     143A      1.390440   144A      1.396321   145A      1.412451  
     146A      1.434726   147A      1.458402   148A      1.462795  
     149A      1.467710   150A      1.467976   151A      1.469590  
     152A      1.537617   153A      1.546014   154A      1.569359  
     155A      1.635048   156A      1.649915   157A      1.683798  
     158A      1.715101   159A      1.717548   160A      1.755800  
     161A      1.772884   162A      1.800052   163A      1.848039  
     164A      1.865503   165A      1.883097   166A      1.883811  
     167A      1.937212   168A      1.966454   169A      1.979453  
     170A      2.026298   171A      2.037642   172A      2.070949  
     173A      2.122848   174A      2.172049   175A      2.193137  
     176A      2.244771   177A      2.251100   178A      2.253643  
     179A      2.265166   180A      2.272354   181A      2.274076  
     182A      2.303189   183A      2.312246   184A      2.336825  
     185A      2.339338   186A      2.362325   187A      2.376685  
     188A      2.379604   189A      2.430330   190A      2.438663  
     191A      2.467297   192A      2.505959   193A      2.536303  
     194A      2.586144   195A      2.623585   196A      2.652307  
     197A      2.664835   198A      2.698538   199A      2.754575  
     200A      2.783681   201A      2.786408   202A      2.824435  
     203A      2.833647   204A      2.886121   205A      2.916175  
     206A      2.974291   207A      3.001602   208A      3.016316  
     209A      3.042920   210A      3.178935   211A      3.182657  
     212A      3.278841   213A      3.310929   214A      3.346124  
     215A      3.357121   216A      3.431709   217A      3.486968  
     218A      3.663005   219A      3.666705   220A      3.690423  
     221A      3.736441   222A      3.740270   223A      3.759662  
     224A      3.790324   225A      3.805251   226A      3.900417  
     227A      4.026314   228A      4.050368   229A      4.142340  
     230A      4.153875   231A      4.309953   232A      4.505145  
     233A      4.617105   234A      4.725199   235A      4.926116  
     236A      4.969962   237A      4.978218   238A      5.001870  
     239A      5.017084   240A      5.033964   241A      5.052789  
     242A      5.222261   243A      5.244482   244A      5.615448  
     245A      5.661446   246A      5.791550   247A      5.869265  
     248A      6.053024   249A      6.229079   250A      6.521018  
     251A      6.790506   252A      7.093196   253A     18.346554  
     254A     18.941044   255A     33.525758   256A     33.563813  

    Final Occupation by Irrep:
              A 
    DOCC [    16 ]

  @DF-RHF Final Energy:  -227.84408589567451

   => Energetics <=

    Nuclear Repulsion Energy =            121.7484302109716197
    One-Electron Energy =                -552.7483714334121032
    Two-Electron Energy =                 203.1558553267659875
    Total Energy =                       -227.8440858956745103

Computation Completed


Properties will be evaluated at   0.000000,   0.000000,   0.000000 [a0]

Properties computed using the SCF density matrix

  Nuclear Dipole Moment: [e a0]
     X:   -98.5925      Y:    72.5259      Z:    62.6670

  Electronic Dipole Moment: [e a0]
     X:    99.4206      Y:   -72.8088      Z:   -62.7502

  Dipole Moment: [e a0]
     X:     0.8281      Y:    -0.2829      Z:    -0.0832     Total:     0.8790

  Dipole Moment: [D]
     X:     2.1048      Y:    -0.7191      Z:    -0.2116     Total:     2.2342


*** tstop() called on ds1 at Wed Sep  1 14:25:49 2021
Module time:
	user time   =      10.92 seconds =       0.18 minutes
	system time =       0.18 seconds =       0.00 minutes
	total time  =          3 seconds =       0.05 minutes
Total time:
	user time   =      26.08 seconds =       0.43 minutes
	system time =       0.57 seconds =       0.01 minutes
	total time  =          6 seconds =       0.10 minutes

  //>>>>>>>>>>>>>>>>>>>>>>>>>>>>>>>>>>>//
  //            Monomer B HF           //
  //<<<<<<<<<<<<<<<<<<<<<<<<<<<<<<<<<<<//


*** tstart() called on ds1
*** at Wed Sep  1 14:25:49 2021

   => Loading Basis Set <=

    Name: AUG-CC-PVDZ
    Role: ORBITAL
    Keyword: BASIS
    atoms 1-2, 9-10  entry O          line   254 file /theoryfs2/ds/csargent/miniconda3/envs/cle/share/psi4/basis/aug-cc-pvdz.gbs 
    atoms 3-6, 11-14 entry H          line    40 file /theoryfs2/ds/csargent/miniconda3/envs/cle/share/psi4/basis/aug-cc-pvdz.gbs 
    atoms 7-8, 15-16 entry C          line   182 file /theoryfs2/ds/csargent/miniconda3/envs/cle/share/psi4/basis/aug-cc-pvdz.gbs 


         ---------------------------------------------------------
                                   SCF
               by Justin Turney, Rob Parrish, Andy Simmonett
                          and Daniel G. A. Smith
                              RHF Reference
                        6 Threads,   6675 MiB Core
         ---------------------------------------------------------

  ==> Geometry <==

    Molecular point group: c1
    Full point group: C1

    Geometry (in Bohr), charge = 0, multiplicity = 1:

       Center              X                  Y                   Z               Mass       
    ------------   -----------------  -----------------  -----------------  -----------------
      Gh(O)          -5.531022370000     2.939402900000     1.977626240000    15.994914619570
      Gh(O)          -2.407088860000     0.908177340000     0.049059090000    15.994914619570
      Gh(H)          -0.503048870000     1.375792050000     4.638809080000     1.007825032230
      Gh(H)           0.000000000000     4.251042850000     3.090722380000     1.007825032230
      Gh(H)          -2.389482150000     4.019167790000     5.401950410000     1.007825032230
      Gh(H)          -3.747714110000     0.471479300000    -1.215575120000     1.007825032230
      Gh(C)          -1.418597820000     2.985005000000     3.844051900000    12.000000000000
      Gh(C)          -3.322637810000     2.286288140000     1.912214130000    12.000000000000
         O           -5.385138200000    14.533156140000   -25.277421230000    15.994914619570
         O           -8.509071700000    12.501930580000   -27.205988390000    15.994914619570
         H          -10.413111690000    12.969545290000   -22.616238400000     1.007825032230
         H          -10.916160570000    15.844796090000   -24.164325090000     1.007825032230
         H           -8.526678420000    15.612921030000   -21.853097070000     1.007825032230
         H           -7.168446460000    12.065232540000   -28.470622590000     1.007825032230
         C           -9.497562740000    14.578758240000   -23.410995580000    12.000000000000
         C           -7.593522750000    13.880041380000   -25.342833350000    12.000000000000

  Running in c1 symmetry.

  Rotational constants: A =      0.03597  B =      0.00111  C =      0.00109 [cm^-1]
  Rotational constants: A =   1078.20628  B =     33.37228  C =     32.65037 [MHz]
  Nuclear repulsion =  121.748430374349297

  Charge       = 0
  Multiplicity = 1
  Electrons    = 32
  Nalpha       = 16
  Nbeta        = 16

  ==> Algorithm <==

  SCF Algorithm Type is DF.
  DIIS enabled.
  MOM disabled.
  Fractional occupation disabled.
  Guess Type is SAD.
  Energy threshold   = 1.00e-10
  Density threshold  = 1.00e-10
  Integral threshold = 1.00e-12

  ==> Primary Basis <==

  Basis Set: AUG-CC-PVDZ
    Blend: AUG-CC-PVDZ
    Number of shells: 112
    Number of basis functions: 256
    Number of Cartesian functions: 272
    Spherical Harmonics?: true
    Max angular momentum: 2

   => Loading Basis Set <=

    Name: (AUG-CC-PVDZ AUX)
    Role: JKFIT
    Keyword: DF_BASIS_SCF
    atoms 1-2, 9-10  entry O          line   270 file /theoryfs2/ds/csargent/miniconda3/envs/cle/share/psi4/basis/aug-cc-pvdz-jkfit.gbs 
    atoms 3-6, 11-14 entry H          line    70 file /theoryfs2/ds/csargent/miniconda3/envs/cle/share/psi4/basis/aug-cc-pvdz-jkfit.gbs 
    atoms 7-8, 15-16 entry C          line   154 file /theoryfs2/ds/csargent/miniconda3/envs/cle/share/psi4/basis/aug-cc-pvdz-jkfit.gbs 

  ==> Integral Setup <==

  ==> DiskDFJK: Density-Fitted J/K Matrices <==

    J tasked:                  Yes
    K tasked:                  Yes
    wK tasked:                  No
    OpenMP threads:              6
    Integrals threads:           6
    Memory [MiB]:             5006
    Algorithm:                Core
    Integral Cache:           LOAD
    Schwarz Cutoff:          1E-12
    Fitting Condition:       1E-10

   => Auxiliary Basis Set <=

  Basis Set: (AUG-CC-PVDZ AUX)
    Blend: AUG-CC-PVDZ-JKFIT
    Number of shells: 320
    Number of basis functions: 944
    Number of Cartesian functions: 1088
    Spherical Harmonics?: true
    Max angular momentum: 3

  Minimum eigenvalue in the overlap matrix is 1.0275858058E-04.
  Reciprocal condition number of the overlap matrix is 9.6523267062E-06.
    Using symmetric orthogonalization.

  ==> Pre-Iterations <==

  SCF Guess: Superposition of Atomic Densities via on-the-fly atomic UHF (no occupation information).

   -------------------------
    Irrep   Nso     Nmo    
   -------------------------
     A        256     256 
   -------------------------
    Total     256     256
   -------------------------

  ==> Iterations <==

                           Total Energy        Delta E     RMS |[F,P]|

   @DF-RHF iter SAD:  -226.98992944513819   -2.26990e+02   0.00000e+00 
   @DF-RHF iter   1:  -227.68091167815624   -6.90982e-01   2.28211e-03 DIIS
   @DF-RHF iter   2:  -227.80091445181844   -1.20003e-01   1.32478e-03 DIIS
   @DF-RHF iter   3:  -227.84131987066840   -4.04054e-02   2.33581e-04 DIIS
   @DF-RHF iter   4:  -227.84355633412940   -2.23646e-03   1.03339e-04 DIIS
   @DF-RHF iter   5:  -227.84403723511662   -4.80901e-04   2.42136e-05 DIIS
   @DF-RHF iter   6:  -227.84407440311151   -3.71680e-05   1.17797e-05 DIIS
   @DF-RHF iter   7:  -227.84408419123687   -9.78813e-06   3.84272e-06 DIIS
   @DF-RHF iter   8:  -227.84408577282360   -1.58159e-06   1.01577e-06 DIIS
   @DF-RHF iter   9:  -227.84408588947403   -1.16650e-07   2.12953e-07 DIIS
   @DF-RHF iter  10:  -227.84408589329468   -3.82065e-09   5.61608e-08 DIIS
   @DF-RHF iter  11:  -227.84408589349798   -2.03300e-10   1.80147e-08 DIIS
   @DF-RHF iter  12:  -227.84408589352029   -2.23110e-11   4.26466e-09 DIIS
   @DF-RHF iter  13:  -227.84408589352168   -1.39266e-12   8.93569e-10 DIIS
   @DF-RHF iter  14:  -227.84408589352188   -1.98952e-13   2.86710e-10 DIIS
   @DF-RHF iter  15:  -227.84408589352168    1.98952e-13   1.08058e-10 DIIS
   @DF-RHF iter  16:  -227.84408589352165    2.84217e-14   2.86097e-11 DIIS
  Energy and wave function converged.


  ==> Post-Iterations <==

    Orbital Energies [Eh]
    ---------------------

    Doubly Occupied:                                                      

       1A    -20.629476     2A    -20.552804     3A    -11.396108  
       4A    -11.250979     5A     -1.475853     6A     -1.357486  
       7A     -1.032999     8A     -0.837930     9A     -0.703065  
      10A     -0.688465    11A     -0.657749    12A     -0.576538  
      13A     -0.569697    14A     -0.561403    15A     -0.475343  
      16A     -0.452434  

    Virtual:                                                              

      17A      0.024833    18A      0.032214    19A      0.045624  
      20A      0.046842    21A      0.055083    22A      0.055675  
      23A      0.056595    24A      0.064644    25A      0.085394  
      26A      0.098769    27A      0.104653    28A      0.112241  
      29A      0.117322    30A      0.117481    31A      0.117857  
      32A      0.140405    33A      0.140554    34A      0.141448  
      35A      0.146931    36A      0.151976    37A      0.156358  
      38A      0.164577    39A      0.171321    40A      0.176389  
      41A      0.196303    42A      0.205675    43A      0.209237  
      44A      0.214634    45A      0.226332    46A      0.233377  
      47A      0.234963    48A      0.244054    49A      0.260258  
      50A      0.264858    51A      0.270849    52A      0.276661  
      53A      0.285484    54A      0.290295    55A      0.295802  
      56A      0.319834    57A      0.322781    58A      0.332382  
      59A      0.336333    60A      0.347275    61A      0.369502  
      62A      0.370652    63A      0.378870    64A      0.394119  
      65A      0.399385    66A      0.401429    67A      0.409876  
      68A      0.426690    69A      0.431196    70A      0.438010  
      71A      0.438218    72A      0.442006    73A      0.460475  
      74A      0.475555    75A      0.490286    76A      0.492358  
      77A      0.497351    78A      0.516558    79A      0.524763  
      80A      0.537262    81A      0.541802    82A      0.543653  
      83A      0.553487    84A      0.559712    85A      0.569740  
      86A      0.583791    87A      0.586902    88A      0.602101  
      89A      0.616363    90A      0.618231    91A      0.636297  
      92A      0.637130    93A      0.640311    94A      0.649301  
      95A      0.666705    96A      0.675199    97A      0.684210  
      98A      0.690015    99A      0.697190   100A      0.700892  
     101A      0.703571   102A      0.728219   103A      0.733289  
     104A      0.742748   105A      0.753689   106A      0.760401  
     107A      0.787237   108A      0.798460   109A      0.815873  
     110A      0.820189   111A      0.848320   112A      0.853581  
     113A      0.876833   114A      0.888269   115A      0.896472  
     116A      0.912403   117A      0.947667   118A      0.949697  
     119A      0.954375   120A      0.958185   121A      0.975959  
     122A      0.983144   123A      1.037995   124A      1.041547  
     125A      1.045238   126A      1.088819   127A      1.101839  
     128A      1.106464   129A      1.118367   130A      1.157520  
     131A      1.162594   132A      1.172141   133A      1.176359  
     134A      1.190923   135A      1.236033   136A      1.260651  
     137A      1.270246   138A      1.272187   139A      1.319230  
     140A      1.329605   141A      1.358181   142A      1.384095  
     143A      1.390440   144A      1.396285   145A      1.412451  
     146A      1.434664   147A      1.458382   148A      1.462795  
     149A      1.467675   150A      1.467976   151A      1.469556  
     152A      1.537574   153A      1.546014   154A      1.569323  
     155A      1.635048   156A      1.649915   157A      1.683755  
     158A      1.715101   159A      1.717495   160A      1.755800  
     161A      1.772884   162A      1.800007   163A      1.848040  
     164A      1.865503   165A      1.883004   166A      1.883811  
     167A      1.937135   168A      1.966454   169A      1.979453  
     170A      2.026298   171A      2.037642   172A      2.070871  
     173A      2.122848   174A      2.172049   175A      2.193137  
     176A      2.244771   177A      2.251002   178A      2.253643  
     179A      2.265081   180A      2.272354   181A      2.274033  
     182A      2.303112   183A      2.312246   184A      2.336734  
     185A      2.339248   186A      2.362260   187A      2.376629  
     188A      2.379604   189A      2.430330   190A      2.438663  
     191A      2.467241   192A      2.505926   193A      2.536303  
     194A      2.586079   195A      2.623585   196A      2.652307  
     197A      2.664791   198A      2.698460   199A      2.754493  
     200A      2.783681   201A      2.786327   202A      2.824354  
     203A      2.833647   204A      2.886121   205A      2.916119  
     206A      2.974291   207A      3.001602   208A      3.016316  
     209A      3.042853   210A      3.178935   211A      3.182583  
     212A      3.278771   213A      3.310859   214A      3.346124  
     215A      3.357047   216A      3.431651   217A      3.486886  
     218A      3.662942   219A      3.666705   220A      3.690423  
     221A      3.736441   222A      3.740241   223A      3.759662  
     224A      3.790324   225A      3.805251   226A      3.900417  
     227A      4.026252   228A      4.050368   229A      4.142340  
     230A      4.153855   231A      4.309953   232A      4.505093  
     233A      4.617073   234A      4.725127   235A      4.926070  
     236A      4.969911   237A      4.978196   238A      5.001813  
     239A      5.017049   240A      5.033940   241A      5.052711  
     242A      5.222194   243A      5.244406   244A      5.615437  
     245A      5.661419   246A      5.791524   247A      5.869211  
     248A      6.052980   249A      6.229020   250A      6.521000  
     251A      6.790479   252A      7.093154   253A     18.346486  
     254A     18.940981   255A     33.525696   256A     33.563803  

    Final Occupation by Irrep:
              A 
    DOCC [    16 ]

  @DF-RHF Final Energy:  -227.84408589352165

   => Energetics <=

    Nuclear Repulsion Energy =            121.7484303743492973
    One-Electron Energy =                -552.7483717333669802
    Two-Electron Energy =                 203.1558554654960176
    Total Energy =                       -227.8440858935216511

Computation Completed


Properties will be evaluated at   0.000000,   0.000000,   0.000000 [a0]

Properties computed using the SCF density matrix

  Nuclear Dipole Moment: [e a0]
     X:  -250.7246      Y:   443.5260      Z:  -809.4945

  Electronic Dipole Moment: [e a0]
     X:   249.8965      Y:  -443.8089      Z:   809.4113

  Dipole Moment: [e a0]
     X:    -0.8281      Y:    -0.2829      Z:    -0.0832     Total:     0.8790

  Dipole Moment: [D]
     X:    -2.1048      Y:    -0.7191      Z:    -0.2116     Total:     2.2342


*** tstop() called on ds1 at Wed Sep  1 14:25:51 2021
Module time:
	user time   =      10.82 seconds =       0.18 minutes
	system time =       0.16 seconds =       0.00 minutes
	total time  =          2 seconds =       0.03 minutes
Total time:
	user time   =      37.10 seconds =       0.62 minutes
	system time =       0.74 seconds =       0.01 minutes
	total time  =          8 seconds =       0.13 minutes
  Constructing Basis Sets for SAPT...

   => Loading Basis Set <=

    Name: (AUG-CC-PVDZ AUX)
    Role: RIFIT
    Keyword: DF_BASIS_SAPT
    atoms 1-2, 9-10  entry O          line   204 file /theoryfs2/ds/csargent/miniconda3/envs/cle/share/psi4/basis/aug-cc-pvdz-ri.gbs 
    atoms 3-6, 11-14 entry H          line    30 file /theoryfs2/ds/csargent/miniconda3/envs/cle/share/psi4/basis/aug-cc-pvdz-ri.gbs 
    atoms 7-8, 15-16 entry C          line   112 file /theoryfs2/ds/csargent/miniconda3/envs/cle/share/psi4/basis/aug-cc-pvdz-ri.gbs 


  //>>>>>>>>>>>>>>>>>>>>>>>>>>>>>>>>>>>//
  //               SAPT0               //
  //<<<<<<<<<<<<<<<<<<<<<<<<<<<<<<<<<<<//


*** tstart() called on ds1
*** at Wed Sep  1 14:25:51 2021

        SAPT0  
    Ed Hohenstein
     6 June 2009

      Orbital Information
  --------------------------
    NSO        =       256
    NMO        =       256
    NRI        =       760
    NOCC A     =        16
    NOCC B     =        16
    FOCC A     =         4
    FOCC B     =         4
    NVIR A     =       240
    NVIR B     =       240

    Elst10,r            =    -0.000024589955 [Eh]
    Exch10              =    -0.000000000000 [Eh]
    Exch10 (S^2)        =    -0.000000000000 [Eh]

    Iter     Energy [mEh]          dE [mEh]         Residual      Time [s]
       1      -0.00002038       0.000020384       0.048766209             0
       2      -0.00002015      -0.000000237       0.015781743             0
       3      -0.00002268       0.000002533       0.005736741             0
       4      -0.00002299       0.000000314       0.001899775             0
       5      -0.00002285      -0.000000149       0.000667764             0
       6      -0.00002284      -0.000000003       0.000223842             0
       7      -0.00002285       0.000000009       0.000064852             0
       8      -0.00002285       0.000000001       0.000016395             0
       9      -0.00002285      -0.000000001       0.000005140             1
      10      -0.00002285      -0.000000000       0.000001578             1
      11      -0.00002285       0.000000000       0.000000548             1

    CHF Iterations converged


    Iter     Energy [mEh]          dE [mEh]         Residual      Time [s]
       1      -0.00001881       0.000018810       0.033644964             0
       2      -0.00002057       0.000001759       0.016248905             0
       3      -0.00002254       0.000001970       0.004678294             0
       4      -0.00002271       0.000000176       0.001557524             0
       5      -0.00002261      -0.000000100       0.000606716             0
       6      -0.00002261      -0.000000008       0.000198848             0
       7      -0.00002262       0.000000009       0.000069995             0
       8      -0.00002262       0.000000001       0.000018244             0
       9      -0.00002262      -0.000000000       0.000004722             0
      10      -0.00002262      -0.000000000       0.000000994             0

    CHF Iterations converged

    Ind20,r (A<-B)      =    -0.000000022852 [Eh]
    Ind20,r (B<-A)      =    -0.000000022616 [Eh]
    Ind20,r             =    -0.000000045468 [Eh]
    Exch-Ind20,r (A<-B) =     0.000000000000 [Eh]
    Exch-Ind20,r (B<-A) =     0.000000000000 [Eh]
    Exch-Ind20,r        =     0.000000000000 [Eh]
    Disp20              =    -0.000000736007 [Eh]
    Disp20 (SS)         =    -0.000000368004 [Eh]
    Disp20 (OS)         =    -0.000000368004 [Eh]
    Exch-Disp20         =     0.000000000000 [Eh]
    Exch-Disp20 (SS)    =     0.000000000000 [Eh]
    Exch-Disp20 (OS)    =     0.000000000000 [Eh]

    SAPT Results 
  --------------------------------------------------------------------------------------------------------
    Electrostatics                 -0.02458995 [mEh]      -0.01543043 [kcal/mol]      -0.06456092 [kJ/mol]
      Elst10,r                     -0.02458995 [mEh]      -0.01543043 [kcal/mol]      -0.06456092 [kJ/mol]

    Exchange                       -0.00000000 [mEh]      -0.00000000 [kcal/mol]      -0.00000000 [kJ/mol]
      Exch10                       -0.00000000 [mEh]      -0.00000000 [kcal/mol]      -0.00000000 [kJ/mol]
      Exch10(S^2)                  -0.00000000 [mEh]      -0.00000000 [kcal/mol]      -0.00000000 [kJ/mol]

    Induction                      -0.00006806 [mEh]      -0.00004271 [kcal/mol]      -0.00017868 [kJ/mol]
      Ind20,r                      -0.00004547 [mEh]      -0.00002853 [kcal/mol]      -0.00011938 [kJ/mol]
      Exch-Ind20,r                  0.00000000 [mEh]       0.00000000 [kcal/mol]       0.00000000 [kJ/mol]
      delta HF,r (2)               -0.00002259 [mEh]      -0.00001417 [kcal/mol]      -0.00005931 [kJ/mol]

    Dispersion                     -0.00073601 [mEh]      -0.00046185 [kcal/mol]      -0.00193239 [kJ/mol]
      Disp20                       -0.00073601 [mEh]      -0.00046185 [kcal/mol]      -0.00193239 [kJ/mol]
      Exch-Disp20                   0.00000000 [mEh]       0.00000000 [kcal/mol]       0.00000000 [kJ/mol]
      Disp20 (SS)                  -0.00036800 [mEh]      -0.00023093 [kcal/mol]      -0.00096619 [kJ/mol]
      Disp20 (OS)                  -0.00036800 [mEh]      -0.00023093 [kcal/mol]      -0.00096619 [kJ/mol]
      Exch-Disp20 (SS)              0.00000000 [mEh]       0.00000000 [kcal/mol]       0.00000000 [kJ/mol]
      Exch-Disp20 (OS)              0.00000000 [mEh]       0.00000000 [kcal/mol]       0.00000000 [kJ/mol]

  Total HF                         -0.02465801 [mEh]      -0.01547314 [kcal/mol]      -0.06473960 [kJ/mol]
  Total SAPT0                      -0.02539402 [mEh]      -0.01593499 [kcal/mol]      -0.06667199 [kJ/mol]

  Special recipe for scaled SAPT0 (see Manual):
    Electrostatics sSAPT0          -0.02458995 [mEh]      -0.01543043 [kcal/mol]      -0.06456092 [kJ/mol]
    Exchange sSAPT0                -0.00000000 [mEh]      -0.00000000 [kcal/mol]      -0.00000000 [kJ/mol]
    Induction sSAPT0               -0.00006806 [mEh]      -0.00004271 [kcal/mol]      -0.00017868 [kJ/mol]
    Dispersion sSAPT0              -0.00073601 [mEh]      -0.00046185 [kcal/mol]      -0.00193239 [kJ/mol]
  Total sSAPT0                     -0.02539402 [mEh]      -0.01593499 [kcal/mol]      -0.06667199 [kJ/mol]
  --------------------------------------------------------------------------------------------------------

*** tstop() called on ds1 at Wed Sep  1 14:25:57 2021
Module time:
	user time   =      27.08 seconds =       0.45 minutes
	system time =       2.33 seconds =       0.04 minutes
	total time  =          6 seconds =       0.10 minutes
Total time:
	user time   =      64.84 seconds =       1.08 minutes
	system time =       3.09 seconds =       0.05 minutes
	total time  =         14 seconds =       0.23 minutes


Warning! sapt0 does not have an associated derived wavefunction.The returned wavefunction is the dimer SCF wavefunction.


    Psi4 stopped on: Wednesday, 01 September 2021 02:25PM
    Psi4 wall time for execution: 0:00:14.04

*** Psi4 exiting successfully. Buy a developer a beer!
