
    -----------------------------------------------------------------------
          Psi4: An Open-Source Ab Initio Electronic Structure Package
                               Psi4 1.4rc3 

                         Git: Rev {HEAD} 080dba6 


    D. G. A. Smith, L. A. Burns, A. C. Simmonett, R. M. Parrish,
    M. C. Schieber, R. Galvelis, P. Kraus, H. Kruse, R. Di Remigio,
    A. Alenaizan, A. M. James, S. Lehtola, J. P. Misiewicz, M. Scheurer,
    R. A. Shaw, J. B. Schriber, Y. Xie, Z. L. Glick, D. A. Sirianni,
    J. S. O'Brien, J. M. Waldrop, A. Kumar, E. G. Hohenstein,
    B. P. Pritchard, B. R. Brooks, H. F. Schaefer III, A. Yu. Sokolov,
    K. Patkowski, A. E. DePrince III, U. Bozkaya, R. A. King,
    F. A. Evangelista, J. M. Turney, T. D. Crawford, C. D. Sherrill,
    J. Chem. Phys. 152(18) 184108 (2020). https://doi.org/10.1063/5.0006002

                            Additional Code Authors
    E. T. Seidl, C. L. Janssen, E. F. Valeev, M. L. Leininger,
    J. F. Gonthier, R. M. Richard, H. R. McAlexander, M. Saitow, X. Wang,
    P. Verma, and M. H. Lechner

             Previous Authors, Complete List of Code Contributors,
                       and Citations for Specific Modules
    https://github.com/psi4/psi4/blob/master/codemeta.json
    https://github.com/psi4/psi4/graphs/contributors
    http://psicode.org/psi4manual/master/introduction.html#citing-psifour

    -----------------------------------------------------------------------


    Psi4 started on: Wednesday, 01 September 2021 01:51PM

    Process ID: 20121
    Host:       ds1
    PSIDATADIR: /theoryfs2/ds/csargent/miniconda3/envs/cle/share/psi4
    Memory:     500.0 MiB
    Threads:    6
    
  ==> Input File <==

--------------------------------------------------------------------------
# PSI4 file produced by CrystaLattE

# Generated from:               acetic_acid.xyz
# Psithon input for N-mer:      2mer-0+574
# Number of atoms per monomer:  [8, 8]
# Number of replicas:           2
# COM priority:                 1.680803071396e-05
# Minimum COM separations:      20.658 
# Separation priority:          2.219653515061e-05
# Minimum monomer separations:  18.830 
# Cutoff priority:              6.238022199134e-07
# Nuclear repulsion energy:     269.6155107822075

memory 7 GB

molecule Dimer_0_574 {
  O           -5.53102237       2.93940290       1.97762624 
  O           -2.40708886       0.90817734       0.04905909 
  H           -0.50304887       1.37579205       4.63880908 
  H            0.00000000       4.25104285       3.09072238 
  H           -2.38948215       4.01916779       5.40195041 
  H           -3.74771411       0.47147930      -1.21557512 
  C           -1.41859782       2.98500500       3.84405190 
  C           -3.32263781       2.28628814       1.91221413 
--
  O          -30.53758190     -16.38351916      18.33065473 
  O          -33.66151541     -18.41474473      16.40208757 
  H          -35.56555540     -17.94713001      20.99183757 
  H          -36.06860427     -15.07187921      19.44375087 
  H          -33.67912212     -15.30375427      21.75497890 
  H          -32.32089016     -18.85144277      15.13745337 
  C          -34.65000644     -16.33791706      20.19708038 
  C          -32.74596646     -17.03663393      18.26524262 
units = au
no_com
no_reorient
}

set {
  e_convergence 10
  d_convergence 10
  scf_type df
  mp2_type df
  cc_type df
  freeze_core true
}

energy('sapt0/aug-cc-pvdz')

--------------------------------------------------------------------------

  Memory set to   6.519 GiB by Python driver.

Scratch directory: /scratch/csargent/psi4.17562.33784/

Scratch directory: /scratch/csargent/psi4.17562.33784/

  //>>>>>>>>>>>>>>>>>>>>>>>>>>>>>>>>>>>//
  //              Dimer HF             //
  //<<<<<<<<<<<<<<<<<<<<<<<<<<<<<<<<<<<//


*** tstart() called on ds1
*** at Wed Sep  1 13:51:58 2021

   => Loading Basis Set <=

    Name: AUG-CC-PVDZ
    Role: ORBITAL
    Keyword: BASIS
    atoms 1-2, 9-10  entry O          line   254 file /theoryfs2/ds/csargent/miniconda3/envs/cle/share/psi4/basis/aug-cc-pvdz.gbs 
    atoms 3-6, 11-14 entry H          line    40 file /theoryfs2/ds/csargent/miniconda3/envs/cle/share/psi4/basis/aug-cc-pvdz.gbs 
    atoms 7-8, 15-16 entry C          line   182 file /theoryfs2/ds/csargent/miniconda3/envs/cle/share/psi4/basis/aug-cc-pvdz.gbs 


         ---------------------------------------------------------
                                   SCF
               by Justin Turney, Rob Parrish, Andy Simmonett
                          and Daniel G. A. Smith
                              RHF Reference
                        6 Threads,   6675 MiB Core
         ---------------------------------------------------------

  ==> Geometry <==

    Molecular point group: c1
    Full point group: C1

    Geometry (in Bohr), charge = 0, multiplicity = 1:

       Center              X                  Y                   Z               Mass       
    ------------   -----------------  -----------------  -----------------  -----------------
         O           -5.531022370000     2.939402900000     1.977626240000    15.994914619570
         O           -2.407088860000     0.908177340000     0.049059090000    15.994914619570
         H           -0.503048870000     1.375792050000     4.638809080000     1.007825032230
         H            0.000000000000     4.251042850000     3.090722380000     1.007825032230
         H           -2.389482150000     4.019167790000     5.401950410000     1.007825032230
         H           -3.747714110000     0.471479300000    -1.215575120000     1.007825032230
         C           -1.418597820000     2.985005000000     3.844051900000    12.000000000000
         C           -3.322637810000     2.286288140000     1.912214130000    12.000000000000
         O          -30.537581900000   -16.383519160000    18.330654730000    15.994914619570
         O          -33.661515410000   -18.414744730000    16.402087570000    15.994914619570
         H          -35.565555400000   -17.947130010000    20.991837570000     1.007825032230
         H          -36.068604270000   -15.071879210000    19.443750870000     1.007825032230
         H          -33.679122120000   -15.303754270000    21.754978900000     1.007825032230
         H          -32.320890160000   -18.851442770000    15.137453370000     1.007825032230
         C          -34.650006440000   -16.337917060000    20.197080380000    12.000000000000
         C          -32.745966460000   -17.036633930000    18.265242620000    12.000000000000

  Running in c1 symmetry.

  Rotational constants: A =      0.04901  B =      0.00058  C =      0.00058 [cm^-1]
  Rotational constants: A =   1469.42928  B =     17.48067  C =     17.35853 [MHz]
  Nuclear repulsion =  269.615510758605865

  Charge       = 0
  Multiplicity = 1
  Electrons    = 64
  Nalpha       = 32
  Nbeta        = 32

  ==> Algorithm <==

  SCF Algorithm Type is DF.
  DIIS enabled.
  MOM disabled.
  Fractional occupation disabled.
  Guess Type is SAD.
  Energy threshold   = 1.00e-10
  Density threshold  = 1.00e-10
  Integral threshold = 1.00e-12

  ==> Primary Basis <==

  Basis Set: AUG-CC-PVDZ
    Blend: AUG-CC-PVDZ
    Number of shells: 112
    Number of basis functions: 256
    Number of Cartesian functions: 272
    Spherical Harmonics?: true
    Max angular momentum: 2

   => Loading Basis Set <=

    Name: (AUG-CC-PVDZ AUX)
    Role: JKFIT
    Keyword: DF_BASIS_SCF
    atoms 1-2, 9-10  entry O          line   270 file /theoryfs2/ds/csargent/miniconda3/envs/cle/share/psi4/basis/aug-cc-pvdz-jkfit.gbs 
    atoms 3-6, 11-14 entry H          line    70 file /theoryfs2/ds/csargent/miniconda3/envs/cle/share/psi4/basis/aug-cc-pvdz-jkfit.gbs 
    atoms 7-8, 15-16 entry C          line   154 file /theoryfs2/ds/csargent/miniconda3/envs/cle/share/psi4/basis/aug-cc-pvdz-jkfit.gbs 

  ==> Integral Setup <==

  ==> DiskDFJK: Density-Fitted J/K Matrices <==

    J tasked:                  Yes
    K tasked:                  Yes
    wK tasked:                  No
    OpenMP threads:              6
    Integrals threads:           6
    Memory [MiB]:             5006
    Algorithm:                Core
    Integral Cache:           SAVE
    Schwarz Cutoff:          1E-12
    Fitting Condition:       1E-10

   => Auxiliary Basis Set <=

  Basis Set: (AUG-CC-PVDZ AUX)
    Blend: AUG-CC-PVDZ-JKFIT
    Number of shells: 320
    Number of basis functions: 944
    Number of Cartesian functions: 1088
    Spherical Harmonics?: true
    Max angular momentum: 3

  Minimum eigenvalue in the overlap matrix is 1.0277546642E-04.
  Reciprocal condition number of the overlap matrix is 9.6539167487E-06.
    Using symmetric orthogonalization.

  ==> Pre-Iterations <==

  SCF Guess: Superposition of Atomic Densities via on-the-fly atomic UHF (no occupation information).

   -------------------------
    Irrep   Nso     Nmo    
   -------------------------
     A        256     256 
   -------------------------
    Total     256     256
   -------------------------

  ==> Iterations <==

                           Total Energy        Delta E     RMS |[F,P]|

   @DF-RHF iter SAD:  -453.97985885466539   -4.53980e+02   0.00000e+00 
   @DF-RHF iter   1:  -455.36179097758952   -1.38193e+00   3.22745e-03 DIIS
   @DF-RHF iter   2:  -455.60179960669785   -2.40009e-01   1.87369e-03 DIIS
   @DF-RHF iter   3:  -455.68262519518663   -8.08256e-02   3.30400e-04 DIIS
   @DF-RHF iter   4:  -455.68709911490055   -4.47392e-03   1.46173e-04 DIIS
   @DF-RHF iter   5:  -455.68806127327167   -9.62158e-04   3.42499e-05 DIIS
   @DF-RHF iter   6:  -455.68813563461492   -7.43613e-05   1.66609e-05 DIIS
   @DF-RHF iter   7:  -455.68815521832005   -1.95837e-05   5.43567e-06 DIIS
   @DF-RHF iter   8:  -455.68815838243609   -3.16412e-06   1.43667e-06 DIIS
   @DF-RHF iter   9:  -455.68815861578747   -2.33351e-07   3.01157e-07 DIIS
   @DF-RHF iter  10:  -455.68815862342780   -7.64032e-09   7.94283e-08 DIIS
   @DF-RHF iter  11:  -455.68815862383514   -4.07340e-10   2.54777e-08 DIIS
   @DF-RHF iter  12:  -455.68815862387925   -4.41105e-11   6.03104e-09 DIIS
   @DF-RHF iter  13:  -455.68815862388260   -3.35376e-12   1.26427e-09 DIIS
   @DF-RHF iter  14:  -455.68815862388232    2.84217e-13   4.07330e-10 DIIS
   @DF-RHF iter  15:  -455.68815862388243   -1.13687e-13   1.54587e-10 DIIS
   @DF-RHF iter  16:  -455.68815862388232    1.13687e-13   4.25928e-11 DIIS
  Energy and wave function converged.


  ==> Post-Iterations <==

    Orbital Energies [Eh]
    ---------------------

    Doubly Occupied:                                                      

       1A    -20.629104     2A    -20.628958     3A    -20.552420  
       4A    -20.552264     5A    -11.395727     6A    -11.395571  
       7A    -11.250615     8A    -11.250443     9A     -1.475477  
      10A     -1.475328    11A     -1.357104    12A     -1.356950  
      13A     -1.032632    14A     -1.032465    15A     -0.837561  
      16A     -0.837408    17A     -0.702683    18A     -0.702530  
      19A     -0.688093    20A     -0.687935    21A     -0.657377  
      22A     -0.657220    23A     -0.576164    24A     -0.576006  
      25A     -0.569331    26A     -0.569170    27A     -0.561037  
      28A     -0.560866    29A     -0.474958    30A     -0.474805  
      31A     -0.452050    32A     -0.451893  

    Virtual:                                                              

      33A      0.032562    34A      0.032707    35A      0.045975  
      36A      0.046110    37A      0.055432    38A      0.055595  
      39A      0.065007    40A      0.065228    41A      0.099132  
      42A      0.099303    43A      0.117685    44A      0.117865  
      45A      0.118253    46A      0.118378    47A      0.140912  
      48A      0.141071    49A      0.152320    50A      0.152478  
      51A      0.156720    52A      0.156920    53A      0.164963  
      54A      0.165096    55A      0.171689    56A      0.171869  
      57A      0.196669    58A      0.196828    59A      0.209602  
      60A      0.209735    61A      0.233754    62A      0.233893  
      63A      0.235327    64A      0.235500    65A      0.271220  
      66A      0.271390    67A      0.290694    68A      0.290853  
      69A      0.296165    70A      0.296322    71A      0.320205  
      72A      0.320350    73A      0.323181    74A      0.323343  
      75A      0.347644    76A      0.347803    77A      0.371035  
      78A      0.371194    79A      0.379230    80A      0.379392  
      81A      0.394492    82A      0.394650    83A      0.401806  
      84A      0.401964    85A      0.427050    86A      0.427202  
      87A      0.438573    88A      0.438764    89A      0.442372  
      90A      0.442520    91A      0.475926    92A      0.476076  
      93A      0.492721    94A      0.492887    95A      0.525123  
      96A      0.525299    97A      0.537644    98A      0.537808  
      99A      0.553848   100A      0.554010   101A      0.570103  
     102A      0.570278   103A      0.584156   104A      0.584327  
     105A      0.602467   106A      0.602616   107A      0.618596  
     108A      0.618758   109A      0.640676   110A      0.640838  
     111A      0.649670   112A      0.649826   113A      0.667066  
     114A      0.667235   115A      0.684581   116A      0.684744  
     117A      0.697565   118A      0.697725   119A      0.703934  
     120A      0.704105   121A      0.733655   122A      0.733824  
     123A      0.743123   124A      0.743285   125A      0.798826  
     126A      0.798997   127A      0.853951   128A      0.854110  
     129A      0.877214   130A      0.877369   131A      0.912781  
     132A      0.912939   133A      0.950070   134A      0.950230  
     135A      0.954747   136A      0.954901   137A      0.983517  
     138A      0.983671   139A      1.041919   140A      1.042079  
     141A      1.089189   142A      1.089355   143A      1.102208  
     144A      1.102370   145A      1.118734   146A      1.118905  
     147A      1.157896   148A      1.158046   149A      1.172513  
     150A      1.172666   151A      1.176731   152A      1.176889  
     153A      1.236398   154A      1.236552   155A      1.272570  
     156A      1.272724   157A      1.319616   158A      1.319774  
     159A      1.358564   160A      1.358720   161A      1.390823  
     162A      1.390982   163A      1.412823   164A      1.412989  
     165A      1.463179   166A      1.463330   167A      1.468354  
     168A      1.468502   169A      1.546381   170A      1.546550  
     171A      1.635424   172A      1.635575   173A      1.650286  
     174A      1.650447   175A      1.715474   176A      1.715633  
     177A      1.756172   178A      1.756335   179A      1.773250  
     180A      1.773418   181A      1.848420   182A      1.848582  
     183A      1.865869   184A      1.866033   185A      1.884173  
     186A      1.884343   187A      1.966823   188A      1.966976  
     189A      1.979832   190A      1.979988   191A      2.026667  
     192A      2.026834   193A      2.038015   194A      2.038171  
     195A      2.123222   196A      2.123381   197A      2.172416  
     198A      2.172577   199A      2.193508   200A      2.193668  
     201A      2.245139   202A      2.245306   203A      2.254012  
     204A      2.254173   205A      2.272732   206A      2.272891  
     207A      2.312614   208A      2.312775   209A      2.379971  
     210A      2.380136   211A      2.430700   212A      2.430855  
     213A      2.439031   214A      2.439193   215A      2.536672  
     216A      2.536837   217A      2.623959   218A      2.624118  
     219A      2.652673   220A      2.652844   221A      2.784050  
     222A      2.784216   223A      2.834016   224A      2.834177  
     225A      2.886490   226A      2.886652   227A      2.974661  
     228A      2.974813   229A      3.001965   230A      3.002135  
     231A      3.016686   232A      3.016847   233A      3.179309  
     234A      3.179464   235A      3.346504   236A      3.346661  
     237A      3.667078   238A      3.667225   239A      3.690796  
     240A      3.690943   241A      3.736819   242A      3.736969  
     243A      3.760049   244A      3.760203   245A      3.790706  
     246A      3.790859   247A      3.805638   248A      3.805792  
     249A      3.900796   250A      3.900946   251A      4.050750  
     252A      4.050903   253A      4.142725   254A      4.142878  
     255A      4.310325   256A      4.310472  

    Final Occupation by Irrep:
              A 
    DOCC [    32 ]

  @DF-RHF Final Energy:  -455.68815862388232

   => Energetics <=

    Nuclear Repulsion Energy =            269.6155107586058648
    One-Electron Energy =               -1157.7630503561267687
    Two-Electron Energy =                 432.4593809736385879
    Total Energy =                       -455.6881586238823161

Computation Completed


Properties will be evaluated at   0.000000,   0.000000,   0.000000 [a0]

Properties computed using the SCF density matrix

  Nuclear Dipole Moment: [e a0]
     X: -1154.1953      Y:  -473.2817      Z:   648.6309

  Electronic Dipole Moment: [e a0]
     X:  1154.1951      Y:   472.7162      Z:  -648.7970

  Dipole Moment: [e a0]
     X:    -0.0002      Y:    -0.5656      Z:    -0.1661     Total:     0.5895

  Dipole Moment: [D]
     X:    -0.0005      Y:    -1.4375      Z:    -0.4223     Total:     1.4982


*** tstop() called on ds1 at Wed Sep  1 13:52:01 2021
Module time:
	user time   =      14.58 seconds =       0.24 minutes
	system time =       0.39 seconds =       0.01 minutes
	total time  =          3 seconds =       0.05 minutes
Total time:
	user time   =      14.58 seconds =       0.24 minutes
	system time =       0.39 seconds =       0.01 minutes
	total time  =          3 seconds =       0.05 minutes

  //>>>>>>>>>>>>>>>>>>>>>>>>>>>>>>>>>>>//
  //            Monomer A HF           //
  //<<<<<<<<<<<<<<<<<<<<<<<<<<<<<<<<<<<//


*** tstart() called on ds1
*** at Wed Sep  1 13:52:01 2021

   => Loading Basis Set <=

    Name: AUG-CC-PVDZ
    Role: ORBITAL
    Keyword: BASIS
    atoms 1-2, 9-10  entry O          line   254 file /theoryfs2/ds/csargent/miniconda3/envs/cle/share/psi4/basis/aug-cc-pvdz.gbs 
    atoms 3-6, 11-14 entry H          line    40 file /theoryfs2/ds/csargent/miniconda3/envs/cle/share/psi4/basis/aug-cc-pvdz.gbs 
    atoms 7-8, 15-16 entry C          line   182 file /theoryfs2/ds/csargent/miniconda3/envs/cle/share/psi4/basis/aug-cc-pvdz.gbs 


         ---------------------------------------------------------
                                   SCF
               by Justin Turney, Rob Parrish, Andy Simmonett
                          and Daniel G. A. Smith
                              RHF Reference
                        6 Threads,   6675 MiB Core
         ---------------------------------------------------------

  ==> Geometry <==

    Molecular point group: c1
    Full point group: C1

    Geometry (in Bohr), charge = 0, multiplicity = 1:

       Center              X                  Y                   Z               Mass       
    ------------   -----------------  -----------------  -----------------  -----------------
         O           -5.531022370000     2.939402900000     1.977626240000    15.994914619570
         O           -2.407088860000     0.908177340000     0.049059090000    15.994914619570
         H           -0.503048870000     1.375792050000     4.638809080000     1.007825032230
         H            0.000000000000     4.251042850000     3.090722380000     1.007825032230
         H           -2.389482150000     4.019167790000     5.401950410000     1.007825032230
         H           -3.747714110000     0.471479300000    -1.215575120000     1.007825032230
         C           -1.418597820000     2.985005000000     3.844051900000    12.000000000000
         C           -3.322637810000     2.286288140000     1.912214130000    12.000000000000
      Gh(O)         -30.537581900000   -16.383519160000    18.330654730000    15.994914619570
      Gh(O)         -33.661515410000   -18.414744730000    16.402087570000    15.994914619570
      Gh(H)         -35.565555400000   -17.947130010000    20.991837570000     1.007825032230
      Gh(H)         -36.068604270000   -15.071879210000    19.443750870000     1.007825032230
      Gh(H)         -33.679122120000   -15.303754270000    21.754978900000     1.007825032230
      Gh(H)         -32.320890160000   -18.851442770000    15.137453370000     1.007825032230
      Gh(C)         -34.650006440000   -16.337917060000    20.197080380000    12.000000000000
      Gh(C)         -32.745966460000   -17.036633930000    18.265242620000    12.000000000000

  Running in c1 symmetry.

  Rotational constants: A =      0.04901  B =      0.00058  C =      0.00058 [cm^-1]
  Rotational constants: A =   1469.42928  B =     17.48067  C =     17.35853 [MHz]
  Nuclear repulsion =  121.748430210971620

  Charge       = 0
  Multiplicity = 1
  Electrons    = 32
  Nalpha       = 16
  Nbeta        = 16

  ==> Algorithm <==

  SCF Algorithm Type is DF.
  DIIS enabled.
  MOM disabled.
  Fractional occupation disabled.
  Guess Type is SAD.
  Energy threshold   = 1.00e-10
  Density threshold  = 1.00e-10
  Integral threshold = 1.00e-12

  ==> Primary Basis <==

  Basis Set: AUG-CC-PVDZ
    Blend: AUG-CC-PVDZ
    Number of shells: 112
    Number of basis functions: 256
    Number of Cartesian functions: 272
    Spherical Harmonics?: true
    Max angular momentum: 2

   => Loading Basis Set <=

    Name: (AUG-CC-PVDZ AUX)
    Role: JKFIT
    Keyword: DF_BASIS_SCF
    atoms 1-2, 9-10  entry O          line   270 file /theoryfs2/ds/csargent/miniconda3/envs/cle/share/psi4/basis/aug-cc-pvdz-jkfit.gbs 
    atoms 3-6, 11-14 entry H          line    70 file /theoryfs2/ds/csargent/miniconda3/envs/cle/share/psi4/basis/aug-cc-pvdz-jkfit.gbs 
    atoms 7-8, 15-16 entry C          line   154 file /theoryfs2/ds/csargent/miniconda3/envs/cle/share/psi4/basis/aug-cc-pvdz-jkfit.gbs 

  ==> Integral Setup <==

  ==> DiskDFJK: Density-Fitted J/K Matrices <==

    J tasked:                  Yes
    K tasked:                  Yes
    wK tasked:                  No
    OpenMP threads:              6
    Integrals threads:           6
    Memory [MiB]:             5006
    Algorithm:                Core
    Integral Cache:           LOAD
    Schwarz Cutoff:          1E-12
    Fitting Condition:       1E-10

   => Auxiliary Basis Set <=

  Basis Set: (AUG-CC-PVDZ AUX)
    Blend: AUG-CC-PVDZ-JKFIT
    Number of shells: 320
    Number of basis functions: 944
    Number of Cartesian functions: 1088
    Spherical Harmonics?: true
    Max angular momentum: 3

  Minimum eigenvalue in the overlap matrix is 1.0277546642E-04.
  Reciprocal condition number of the overlap matrix is 9.6539167487E-06.
    Using symmetric orthogonalization.

  ==> Pre-Iterations <==

  SCF Guess: Superposition of Atomic Densities via on-the-fly atomic UHF (no occupation information).

   -------------------------
    Irrep   Nso     Nmo    
   -------------------------
     A        256     256 
   -------------------------
    Total     256     256
   -------------------------

  ==> Iterations <==

                           Total Energy        Delta E     RMS |[F,P]|

   @DF-RHF iter SAD:  -226.98992942886625   -2.26990e+02   0.00000e+00 
   @DF-RHF iter   1:  -227.68091168094753   -6.90982e-01   2.28211e-03 DIIS
   @DF-RHF iter   2:  -227.80091445399279   -1.20003e-01   1.32478e-03 DIIS
   @DF-RHF iter   3:  -227.84131987323238   -4.04054e-02   2.33581e-04 DIIS
   @DF-RHF iter   4:  -227.84355633677364   -2.23646e-03   1.03339e-04 DIIS
   @DF-RHF iter   5:  -227.84403723777734   -4.80901e-04   2.42136e-05 DIIS
   @DF-RHF iter   6:  -227.84407440577485   -3.71680e-05   1.17797e-05 DIIS
   @DF-RHF iter   7:  -227.84408419390087   -9.78813e-06   3.84272e-06 DIIS
   @DF-RHF iter   8:  -227.84408577548737   -1.58159e-06   1.01577e-06 DIIS
   @DF-RHF iter   9:  -227.84408589213785   -1.16650e-07   2.12953e-07 DIIS
   @DF-RHF iter  10:  -227.84408589595802   -3.82016e-09   5.61608e-08 DIIS
   @DF-RHF iter  11:  -227.84408589616169   -2.03670e-10   1.80147e-08 DIIS
   @DF-RHF iter  12:  -227.84408589618391   -2.22258e-11   4.26466e-09 DIIS
   @DF-RHF iter  13:  -227.84408589618545   -1.53477e-12   8.93569e-10 DIIS
   @DF-RHF iter  14:  -227.84408589618519    2.55795e-13   2.86710e-10 DIIS
   @DF-RHF iter  15:  -227.84408589618570   -5.11591e-13   1.08058e-10 DIIS
   @DF-RHF iter  16:  -227.84408589618522    4.83169e-13   2.86096e-11 DIIS
  Energy and wave function converged.


  ==> Post-Iterations <==

    Orbital Energies [Eh]
    ---------------------

    Doubly Occupied:                                                      

       1A    -20.629476     2A    -20.552804     3A    -11.396108  
       4A    -11.250979     5A     -1.475853     6A     -1.357486  
       7A     -1.032999     8A     -0.837930     9A     -0.703065  
      10A     -0.688465    11A     -0.657749    12A     -0.576538  
      13A     -0.569697    14A     -0.561403    15A     -0.475343  
      16A     -0.452434  

    Virtual:                                                              

      17A      0.025130    18A      0.032214    19A      0.045627  
      20A      0.047200    21A      0.055084    22A      0.055887  
      23A      0.056887    24A      0.064645    25A      0.085778  
      26A      0.098769    27A      0.104959    28A      0.112570  
      29A      0.117323    30A      0.117711    31A      0.117857  
      32A      0.140545    33A      0.140761    34A      0.141737  
      35A      0.147209    36A      0.151976    37A      0.156356  
      38A      0.164577    39A      0.171320    40A      0.176745  
      41A      0.196303    42A      0.206006    43A      0.209237  
      44A      0.214978    45A      0.226654    46A      0.233376  
      47A      0.234963    48A      0.244450    49A      0.260673  
      50A      0.265196    51A      0.270849    52A      0.277077  
      53A      0.285831    54A      0.290295    55A      0.295802  
      56A      0.319834    57A      0.322781    58A      0.332651  
      59A      0.336581    60A      0.347275    61A      0.369830  
      62A      0.370652    63A      0.378870    64A      0.394119  
      65A      0.399656    66A      0.401429    67A      0.410143  
      68A      0.426690    69A      0.431515    70A      0.438218  
      71A      0.438284    72A      0.442006    73A      0.460830  
      74A      0.475555    75A      0.490612    76A      0.492357  
      77A      0.497680    78A      0.516906    79A      0.524763  
      80A      0.537262    81A      0.542140    82A      0.543945  
      83A      0.553487    84A      0.560011    85A      0.569740  
      86A      0.583791    87A      0.587177    88A      0.602101  
      89A      0.616708    90A      0.618231    91A      0.636625  
      92A      0.637461    93A      0.640311    94A      0.649301  
      95A      0.666705    96A      0.675519    97A      0.684210  
      98A      0.690327    99A      0.697190   100A      0.701198  
     101A      0.703571   102A      0.728486   103A      0.733289  
     104A      0.742748   105A      0.754025   106A      0.760686  
     107A      0.787527   108A      0.798460   109A      0.816147  
     110A      0.820479   111A      0.848606   112A      0.853581  
     113A      0.876833   114A      0.888577   115A      0.896784  
     116A      0.912403   117A      0.948002   118A      0.949697  
     119A      0.954375   120A      0.958496   121A      0.976294  
     122A      0.983144   123A      1.038359   124A      1.041547  
     125A      1.045587   126A      1.088819   127A      1.101839  
     128A      1.106798   129A      1.118367   130A      1.157520  
     131A      1.162965   132A      1.172141   133A      1.176359  
     134A      1.191268   135A      1.236033   136A      1.261046  
     137A      1.270641   138A      1.272187   139A      1.319230  
     140A      1.329963   141A      1.358181   142A      1.384498  
     143A      1.390440   144A      1.396644   145A      1.412451  
     146A      1.435075   147A      1.458745   148A      1.462795  
     149A      1.467976   150A      1.468040   151A      1.469915  
     152A      1.537936   153A      1.546014   154A      1.569695  
     155A      1.635048   156A      1.649915   157A      1.684095  
     158A      1.715101   159A      1.717877   160A      1.755800  
     161A      1.772884   162A      1.800383   163A      1.848039  
     164A      1.865503   165A      1.883258   166A      1.883811  
     167A      1.937416   168A      1.966454   169A      1.979453  
     170A      2.026298   171A      2.037642   172A      2.071171  
     173A      2.122848   174A      2.172049   175A      2.193137  
     176A      2.244771   177A      2.251299   178A      2.253643  
     179A      2.265339   180A      2.272354   181A      2.274359  
     182A      2.303388   183A      2.312246   184A      2.337004  
     185A      2.339510   186A      2.362536   187A      2.376955  
     188A      2.379604   189A      2.430330   190A      2.438663  
     191A      2.467576   192A      2.506264   193A      2.536303  
     194A      2.586408   195A      2.623585   196A      2.652307  
     197A      2.665116   198A      2.698739   199A      2.754773  
     200A      2.783681   201A      2.786627   202A      2.824649  
     203A      2.833647   204A      2.886121   205A      2.916429  
     206A      2.974291   207A      3.001602   208A      3.016316  
     209A      3.043163   210A      3.178935   211A      3.182892  
     212A      3.279052   213A      3.311167   214A      3.346124  
     215A      3.357350   216A      3.431987   217A      3.487181  
     218A      3.663272   219A      3.666705   220A      3.690423  
     221A      3.736441   222A      3.740586   223A      3.759662  
     224A      3.790324   225A      3.805251   226A      3.900417  
     227A      4.026638   228A      4.050368   229A      4.142340  
     230A      4.154187   231A      4.309953   232A      4.505501  
     233A      4.617426   234A      4.725445   235A      4.926475  
     236A      4.970311   237A      4.978549   238A      5.002245  
     239A      5.017411   240A      5.034278   241A      5.053009  
     242A      5.222556   243A      5.244733   244A      5.615758  
     245A      5.661772   246A      5.791891   247A      5.869620  
     248A      6.053376   249A      6.229442   250A      6.521337  
     251A      6.790836   252A      7.093542   253A     18.346795  
     254A     18.941300   255A     33.526135   256A     33.564133  

    Final Occupation by Irrep:
              A 
    DOCC [    16 ]

  @DF-RHF Final Energy:  -227.84408589618522

   => Energetics <=

    Nuclear Repulsion Energy =            121.7484302109716197
    One-Electron Energy =                -552.7483714430841246
    Two-Electron Energy =                 203.1558553359272992
    Total Energy =                       -227.8440858961852200

Computation Completed


Properties will be evaluated at   0.000000,   0.000000,   0.000000 [a0]

Properties computed using the SCF density matrix

  Nuclear Dipole Moment: [e a0]
     X:   -98.5925      Y:    72.5259      Z:    62.6670

  Electronic Dipole Moment: [e a0]
     X:    99.4206      Y:   -72.8088      Z:   -62.7502

  Dipole Moment: [e a0]
     X:     0.8281      Y:    -0.2829      Z:    -0.0832     Total:     0.8790

  Dipole Moment: [D]
     X:     2.1048      Y:    -0.7191      Z:    -0.2116     Total:     2.2342


*** tstop() called on ds1 at Wed Sep  1 13:52:04 2021
Module time:
	user time   =      10.88 seconds =       0.18 minutes
	system time =       0.17 seconds =       0.00 minutes
	total time  =          3 seconds =       0.05 minutes
Total time:
	user time   =      25.66 seconds =       0.43 minutes
	system time =       0.57 seconds =       0.01 minutes
	total time  =          6 seconds =       0.10 minutes

  //>>>>>>>>>>>>>>>>>>>>>>>>>>>>>>>>>>>//
  //            Monomer B HF           //
  //<<<<<<<<<<<<<<<<<<<<<<<<<<<<<<<<<<<//


*** tstart() called on ds1
*** at Wed Sep  1 13:52:04 2021

   => Loading Basis Set <=

    Name: AUG-CC-PVDZ
    Role: ORBITAL
    Keyword: BASIS
    atoms 1-2, 9-10  entry O          line   254 file /theoryfs2/ds/csargent/miniconda3/envs/cle/share/psi4/basis/aug-cc-pvdz.gbs 
    atoms 3-6, 11-14 entry H          line    40 file /theoryfs2/ds/csargent/miniconda3/envs/cle/share/psi4/basis/aug-cc-pvdz.gbs 
    atoms 7-8, 15-16 entry C          line   182 file /theoryfs2/ds/csargent/miniconda3/envs/cle/share/psi4/basis/aug-cc-pvdz.gbs 


         ---------------------------------------------------------
                                   SCF
               by Justin Turney, Rob Parrish, Andy Simmonett
                          and Daniel G. A. Smith
                              RHF Reference
                        6 Threads,   6675 MiB Core
         ---------------------------------------------------------

  ==> Geometry <==

    Molecular point group: c1
    Full point group: C1

    Geometry (in Bohr), charge = 0, multiplicity = 1:

       Center              X                  Y                   Z               Mass       
    ------------   -----------------  -----------------  -----------------  -----------------
      Gh(O)          -5.531022370000     2.939402900000     1.977626240000    15.994914619570
      Gh(O)          -2.407088860000     0.908177340000     0.049059090000    15.994914619570
      Gh(H)          -0.503048870000     1.375792050000     4.638809080000     1.007825032230
      Gh(H)           0.000000000000     4.251042850000     3.090722380000     1.007825032230
      Gh(H)          -2.389482150000     4.019167790000     5.401950410000     1.007825032230
      Gh(H)          -3.747714110000     0.471479300000    -1.215575120000     1.007825032230
      Gh(C)          -1.418597820000     2.985005000000     3.844051900000    12.000000000000
      Gh(C)          -3.322637810000     2.286288140000     1.912214130000    12.000000000000
         O          -30.537581900000   -16.383519160000    18.330654730000    15.994914619570
         O          -33.661515410000   -18.414744730000    16.402087570000    15.994914619570
         H          -35.565555400000   -17.947130010000    20.991837570000     1.007825032230
         H          -36.068604270000   -15.071879210000    19.443750870000     1.007825032230
         H          -33.679122120000   -15.303754270000    21.754978900000     1.007825032230
         H          -32.320890160000   -18.851442770000    15.137453370000     1.007825032230
         C          -34.650006440000   -16.337917060000    20.197080380000    12.000000000000
         C          -32.745966460000   -17.036633930000    18.265242620000    12.000000000000

  Running in c1 symmetry.

  Rotational constants: A =      0.04901  B =      0.00058  C =      0.00058 [cm^-1]
  Rotational constants: A =   1469.42928  B =     17.48067  C =     17.35853 [MHz]
  Nuclear repulsion =  121.748430149967987

  Charge       = 0
  Multiplicity = 1
  Electrons    = 32
  Nalpha       = 16
  Nbeta        = 16

  ==> Algorithm <==

  SCF Algorithm Type is DF.
  DIIS enabled.
  MOM disabled.
  Fractional occupation disabled.
  Guess Type is SAD.
  Energy threshold   = 1.00e-10
  Density threshold  = 1.00e-10
  Integral threshold = 1.00e-12

  ==> Primary Basis <==

  Basis Set: AUG-CC-PVDZ
    Blend: AUG-CC-PVDZ
    Number of shells: 112
    Number of basis functions: 256
    Number of Cartesian functions: 272
    Spherical Harmonics?: true
    Max angular momentum: 2

   => Loading Basis Set <=

    Name: (AUG-CC-PVDZ AUX)
    Role: JKFIT
    Keyword: DF_BASIS_SCF
    atoms 1-2, 9-10  entry O          line   270 file /theoryfs2/ds/csargent/miniconda3/envs/cle/share/psi4/basis/aug-cc-pvdz-jkfit.gbs 
    atoms 3-6, 11-14 entry H          line    70 file /theoryfs2/ds/csargent/miniconda3/envs/cle/share/psi4/basis/aug-cc-pvdz-jkfit.gbs 
    atoms 7-8, 15-16 entry C          line   154 file /theoryfs2/ds/csargent/miniconda3/envs/cle/share/psi4/basis/aug-cc-pvdz-jkfit.gbs 

  ==> Integral Setup <==

  ==> DiskDFJK: Density-Fitted J/K Matrices <==

    J tasked:                  Yes
    K tasked:                  Yes
    wK tasked:                  No
    OpenMP threads:              6
    Integrals threads:           6
    Memory [MiB]:             5006
    Algorithm:                Core
    Integral Cache:           LOAD
    Schwarz Cutoff:          1E-12
    Fitting Condition:       1E-10

   => Auxiliary Basis Set <=

  Basis Set: (AUG-CC-PVDZ AUX)
    Blend: AUG-CC-PVDZ-JKFIT
    Number of shells: 320
    Number of basis functions: 944
    Number of Cartesian functions: 1088
    Spherical Harmonics?: true
    Max angular momentum: 3

  Minimum eigenvalue in the overlap matrix is 1.0277546642E-04.
  Reciprocal condition number of the overlap matrix is 9.6539167487E-06.
    Using symmetric orthogonalization.

  ==> Pre-Iterations <==

  SCF Guess: Superposition of Atomic Densities via on-the-fly atomic UHF (no occupation information).

   -------------------------
    Irrep   Nso     Nmo    
   -------------------------
     A        256     256 
   -------------------------
    Total     256     256
   -------------------------

  ==> Iterations <==

                           Total Energy        Delta E     RMS |[F,P]|

   @DF-RHF iter SAD:  -226.98992942428347   -2.26990e+02   0.00000e+00 
   @DF-RHF iter   1:  -227.68091168144326   -6.90982e-01   2.28211e-03 DIIS
   @DF-RHF iter   2:  -227.80091445432967   -1.20003e-01   1.32478e-03 DIIS
   @DF-RHF iter   3:  -227.84131987373792   -4.04054e-02   2.33581e-04 DIIS
   @DF-RHF iter   4:  -227.84355633729518   -2.23646e-03   1.03339e-04 DIIS
   @DF-RHF iter   5:  -227.84403723830201   -4.80901e-04   2.42136e-05 DIIS
   @DF-RHF iter   6:  -227.84407440629968   -3.71680e-05   1.17797e-05 DIIS
   @DF-RHF iter   7:  -227.84408419442568   -9.78813e-06   3.84272e-06 DIIS
   @DF-RHF iter   8:  -227.84408577601224   -1.58159e-06   1.01577e-06 DIIS
   @DF-RHF iter   9:  -227.84408589266246   -1.16650e-07   2.12954e-07 DIIS
   @DF-RHF iter  10:  -227.84408589648339   -3.82093e-09   5.61608e-08 DIIS
   @DF-RHF iter  11:  -227.84408589668689   -2.03499e-10   1.80147e-08 DIIS
   @DF-RHF iter  12:  -227.84408589670863   -2.17426e-11   4.26466e-09 DIIS
   @DF-RHF iter  13:  -227.84408589671051   -1.87583e-12   8.93569e-10 DIIS
   @DF-RHF iter  14:  -227.84408589671057   -5.68434e-14   2.86711e-10 DIIS
   @DF-RHF iter  15:  -227.84408589671040    1.70530e-13   1.08058e-10 DIIS
   @DF-RHF iter  16:  -227.84408589671037    2.84217e-14   2.86096e-11 DIIS
  Energy and wave function converged.


  ==> Post-Iterations <==

    Orbital Energies [Eh]
    ---------------------

    Doubly Occupied:                                                      

       1A    -20.629476     2A    -20.552804     3A    -11.396108  
       4A    -11.250979     5A     -1.475853     6A     -1.357486  
       7A     -1.032999     8A     -0.837930     9A     -0.703065  
      10A     -0.688465    11A     -0.657749    12A     -0.576538  
      13A     -0.569697    14A     -0.561403    15A     -0.475343  
      16A     -0.452434  

    Virtual:                                                              

      17A      0.025291    18A      0.032214    19A      0.045627  
      20A      0.047343    21A      0.055084    22A      0.056066  
      23A      0.057055    24A      0.064645    25A      0.085934  
      26A      0.098769    27A      0.105106    28A      0.112738  
      29A      0.117323    30A      0.117857    31A      0.117895  
      32A      0.140545    33A      0.140911    34A      0.141896  
      35A      0.147416    36A      0.151976    37A      0.156356  
      38A      0.164577    39A      0.171320    40A      0.176895  
      41A      0.196303    42A      0.206154    43A      0.209237  
      44A      0.215122    45A      0.226803    46A      0.233376  
      47A      0.234963    48A      0.244614    49A      0.260832  
      50A      0.265342    51A      0.270849    52A      0.277231  
      53A      0.285980    54A      0.290295    55A      0.295802  
      56A      0.319834    57A      0.322781    58A      0.332793  
      59A      0.336780    60A      0.347275    61A      0.370007  
      62A      0.370652    63A      0.378870    64A      0.394119  
      65A      0.399829    66A      0.401429    67A      0.410313  
      68A      0.426690    69A      0.431686    70A      0.438218  
      71A      0.438444    72A      0.442006    73A      0.460967  
      74A      0.475555    75A      0.490774    76A      0.492357  
      77A      0.497825    78A      0.517065    79A      0.524763  
      80A      0.537262    81A      0.542284    82A      0.544122  
      83A      0.553487    84A      0.560168    85A      0.569740  
      86A      0.583791    87A      0.587344    88A      0.602101  
      89A      0.616863    90A      0.618231    91A      0.636797  
      92A      0.637613    93A      0.640311    94A      0.649301  
      95A      0.666705    96A      0.675678    97A      0.684210  
      98A      0.690495    99A      0.697190   100A      0.701364  
     101A      0.703571   102A      0.728656   103A      0.733289  
     104A      0.742748   105A      0.754196   106A      0.760864  
     107A      0.787693   108A      0.798460   109A      0.816318  
     110A      0.820656   111A      0.848774   112A      0.853581  
     113A      0.876833   114A      0.888752   115A      0.896939  
     116A      0.912403   117A      0.948164   118A      0.949697  
     119A      0.954375   120A      0.958662   121A      0.976456  
     122A      0.983144   123A      1.038512   124A      1.041547  
     125A      1.045749   126A      1.088819   127A      1.101839  
     128A      1.106958   129A      1.118367   130A      1.157520  
     131A      1.163118   132A      1.172141   133A      1.176359  
     134A      1.191418   135A      1.236033   136A      1.261194  
     137A      1.270789   138A      1.272187   139A      1.319230  
     140A      1.330113   141A      1.358181   142A      1.384649  
     143A      1.390440   144A      1.396793   145A      1.412451  
     146A      1.435230   147A      1.458889   148A      1.462795  
     149A      1.467976   150A      1.468190   151A      1.470061  
     152A      1.538088   153A      1.546014   154A      1.569847  
     155A      1.635048   156A      1.649915   157A      1.684245  
     158A      1.715101   159A      1.718031   160A      1.755800  
     161A      1.772884   162A      1.800533   163A      1.848039  
     164A      1.865503   165A      1.883434   166A      1.883811  
     167A      1.937591   168A      1.966454   169A      1.979453  
     170A      2.026298   171A      2.037642   172A      2.071342  
     173A      2.122848   174A      2.172049   175A      2.193137  
     176A      2.244771   177A      2.251482   178A      2.253643  
     179A      2.265517   180A      2.272354   181A      2.274500  
     182A      2.303558   183A      2.312246   184A      2.337169  
     185A      2.339697   186A      2.362699   187A      2.377117  
     188A      2.379604   189A      2.430330   190A      2.438663  
     191A      2.467732   192A      2.506408   193A      2.536303  
     194A      2.586569   195A      2.623585   196A      2.652307  
     197A      2.665275   198A      2.698907   199A      2.754946  
     200A      2.783681   201A      2.786809   202A      2.824813  
     203A      2.833647   204A      2.886121   205A      2.916585  
     206A      2.974291   207A      3.001602   208A      3.016316  
     209A      3.043329   210A      3.178935   211A      3.183062  
     212A      3.279222   213A      3.311332   214A      3.346124  
     215A      3.357518   216A      3.432155   217A      3.487355  
     218A      3.663434   219A      3.666705   220A      3.690423  
     221A      3.736441   222A      3.740734   223A      3.759662  
     224A      3.790324   225A      3.805251   226A      3.900417  
     227A      4.026795   228A      4.050368   229A      4.142340  
     230A      4.154326   231A      4.309953   232A      4.505653  
     233A      4.617575   234A      4.725613   235A      4.926624  
     236A      4.970463   237A      4.978694   238A      5.002396  
     239A      5.017558   240A      5.034423   241A      5.053175  
     242A      5.222717   243A      5.244904   244A      5.615900  
     245A      5.661918   246A      5.792036   247A      5.869773  
     248A      6.053527   249A      6.229596   250A      6.521480  
     251A      6.790981   252A      7.093692   253A     18.346963  
     254A     18.941466   255A     33.526288   256A     33.564274  

    Final Occupation by Irrep:
              A 
    DOCC [    16 ]

  @DF-RHF Final Energy:  -227.84408589671037

   => Energetics <=

    Nuclear Repulsion Energy =            121.7484301499679873
    One-Electron Energy =                -552.7483713236138101
    Two-Electron Energy =                 203.1558552769354549
    Total Energy =                       -227.8440858967103679

Computation Completed


Properties will be evaluated at   0.000000,   0.000000,   0.000000 [a0]

Properties computed using the SCF density matrix

  Nuclear Dipole Moment: [e a0]
     X: -1055.6028      Y:  -545.8076      Z:   585.9639

  Electronic Dipole Moment: [e a0]
     X:  1054.7747      Y:   545.5247      Z:  -586.0471

  Dipole Moment: [e a0]
     X:    -0.8281      Y:    -0.2829      Z:    -0.0832     Total:     0.8790

  Dipole Moment: [D]
     X:    -2.1048      Y:    -0.7191      Z:    -0.2116     Total:     2.2342


*** tstop() called on ds1 at Wed Sep  1 13:52:06 2021
Module time:
	user time   =      11.00 seconds =       0.18 minutes
	system time =       0.17 seconds =       0.00 minutes
	total time  =          2 seconds =       0.03 minutes
Total time:
	user time   =      36.69 seconds =       0.61 minutes
	system time =       0.74 seconds =       0.01 minutes
	total time  =          8 seconds =       0.13 minutes
  Constructing Basis Sets for SAPT...

   => Loading Basis Set <=

    Name: (AUG-CC-PVDZ AUX)
    Role: RIFIT
    Keyword: DF_BASIS_SAPT
    atoms 1-2, 9-10  entry O          line   204 file /theoryfs2/ds/csargent/miniconda3/envs/cle/share/psi4/basis/aug-cc-pvdz-ri.gbs 
    atoms 3-6, 11-14 entry H          line    30 file /theoryfs2/ds/csargent/miniconda3/envs/cle/share/psi4/basis/aug-cc-pvdz-ri.gbs 
    atoms 7-8, 15-16 entry C          line   112 file /theoryfs2/ds/csargent/miniconda3/envs/cle/share/psi4/basis/aug-cc-pvdz-ri.gbs 


  //>>>>>>>>>>>>>>>>>>>>>>>>>>>>>>>>>>>//
  //               SAPT0               //
  //<<<<<<<<<<<<<<<<<<<<<<<<<<<<<<<<<<<//


*** tstart() called on ds1
*** at Wed Sep  1 13:52:06 2021

        SAPT0  
    Ed Hohenstein
     6 June 2009

      Orbital Information
  --------------------------
    NSO        =       256
    NMO        =       256
    NRI        =       760
    NOCC A     =        16
    NOCC B     =        16
    FOCC A     =         4
    FOCC B     =         4
    NVIR A     =       240
    NVIR B     =       240

    Elst10,r            =     0.000013194688 [Eh]
    Exch10              =    -0.000000000000 [Eh]
    Exch10 (S^2)        =    -0.000000000000 [Eh]

    Iter     Energy [mEh]          dE [mEh]         Residual      Time [s]
       1      -0.00001223       0.000012229       0.028664626             0
       2      -0.00001191      -0.000000316       0.009736663             0
       3      -0.00001259       0.000000673       0.004308274             0
       4      -0.00001290       0.000000317       0.000806204             0
       5      -0.00001286      -0.000000041       0.000469374             0
       6      -0.00001285      -0.000000011       0.000146972             0
       7      -0.00001286       0.000000005       0.000044182             0
       8      -0.00001286       0.000000001       0.000012051             0
       9      -0.00001286      -0.000000000       0.000003594             0
      10      -0.00001286      -0.000000000       0.000001303             1
      11      -0.00001286       0.000000000       0.000000437             1

    CHF Iterations converged


    Iter     Energy [mEh]          dE [mEh]         Residual      Time [s]
       1      -0.00000763       0.000007635       0.024406523             0
       2      -0.00000738      -0.000000253       0.008025579             0
       3      -0.00000782       0.000000440       0.003694834             0
       4      -0.00000804       0.000000222       0.000754336             0
       5      -0.00000800      -0.000000045       0.000301597             0
       6      -0.00000800      -0.000000000       0.000117401             0
       7      -0.00000800       0.000000003       0.000030522             0
       8      -0.00000800       0.000000000       0.000008515             0
       9      -0.00000800      -0.000000000       0.000002477             0
      10      -0.00000800      -0.000000000       0.000000733             0

    CHF Iterations converged

    Ind20,r (A<-B)      =    -0.000000012856 [Eh]
    Ind20,r (B<-A)      =    -0.000000008002 [Eh]
    Ind20,r             =    -0.000000020857 [Eh]
    Exch-Ind20,r (A<-B) =     0.000000000000 [Eh]
    Exch-Ind20,r (B<-A) =     0.000000000000 [Eh]
    Exch-Ind20,r        =     0.000000000000 [Eh]
    Disp20              =    -0.000000149795 [Eh]
    Disp20 (SS)         =    -0.000000074898 [Eh]
    Disp20 (OS)         =    -0.000000074898 [Eh]
    Exch-Disp20         =     0.000000000000 [Eh]
    Exch-Disp20 (SS)    =     0.000000000000 [Eh]
    Exch-Disp20 (OS)    =     0.000000000000 [Eh]

    SAPT Results 
  --------------------------------------------------------------------------------------------------------
    Electrostatics                  0.01319469 [mEh]       0.00827979 [kcal/mol]       0.03464265 [kJ/mol]
      Elst10,r                      0.01319469 [mEh]       0.00827979 [kcal/mol]       0.03464265 [kJ/mol]

    Exchange                       -0.00000000 [mEh]      -0.00000000 [kcal/mol]      -0.00000000 [kJ/mol]
      Exch10                       -0.00000000 [mEh]      -0.00000000 [kcal/mol]      -0.00000000 [kJ/mol]
      Exch10(S^2)                  -0.00000000 [mEh]      -0.00000000 [kcal/mol]      -0.00000000 [kJ/mol]

    Induction                      -0.00002568 [mEh]      -0.00001611 [kcal/mol]      -0.00006741 [kJ/mol]
      Ind20,r                      -0.00002086 [mEh]      -0.00001309 [kcal/mol]      -0.00005476 [kJ/mol]
      Exch-Ind20,r                  0.00000000 [mEh]       0.00000000 [kcal/mol]       0.00000000 [kJ/mol]
      delta HF,r (2)               -0.00000482 [mEh]      -0.00000302 [kcal/mol]      -0.00001265 [kJ/mol]

    Dispersion                     -0.00014980 [mEh]      -0.00009400 [kcal/mol]      -0.00039329 [kJ/mol]
      Disp20                       -0.00014980 [mEh]      -0.00009400 [kcal/mol]      -0.00039329 [kJ/mol]
      Exch-Disp20                   0.00000000 [mEh]       0.00000000 [kcal/mol]       0.00000000 [kJ/mol]
      Disp20 (SS)                  -0.00007490 [mEh]      -0.00004700 [kcal/mol]      -0.00019664 [kJ/mol]
      Disp20 (OS)                  -0.00007490 [mEh]      -0.00004700 [kcal/mol]      -0.00019664 [kJ/mol]
      Exch-Disp20 (SS)              0.00000000 [mEh]       0.00000000 [kcal/mol]       0.00000000 [kJ/mol]
      Exch-Disp20 (OS)              0.00000000 [mEh]       0.00000000 [kcal/mol]       0.00000000 [kJ/mol]

  Total HF                          0.01316901 [mEh]       0.00826368 [kcal/mol]       0.03457524 [kJ/mol]
  Total SAPT0                       0.01301922 [mEh]       0.00816968 [kcal/mol]       0.03418195 [kJ/mol]

  Special recipe for scaled SAPT0 (see Manual):
    Electrostatics sSAPT0           0.01319469 [mEh]       0.00827979 [kcal/mol]       0.03464265 [kJ/mol]
    Exchange sSAPT0                -0.00000000 [mEh]      -0.00000000 [kcal/mol]      -0.00000000 [kJ/mol]
    Induction sSAPT0               -0.00002568 [mEh]      -0.00001611 [kcal/mol]      -0.00006741 [kJ/mol]
    Dispersion sSAPT0              -0.00014980 [mEh]      -0.00009400 [kcal/mol]      -0.00039329 [kJ/mol]
  Total sSAPT0                      0.01301922 [mEh]       0.00816968 [kcal/mol]       0.03418195 [kJ/mol]
  --------------------------------------------------------------------------------------------------------

*** tstop() called on ds1 at Wed Sep  1 13:52:12 2021
Module time:
	user time   =      27.18 seconds =       0.45 minutes
	system time =       2.35 seconds =       0.04 minutes
	total time  =          6 seconds =       0.10 minutes
Total time:
	user time   =      64.69 seconds =       1.08 minutes
	system time =       3.11 seconds =       0.05 minutes
	total time  =         14 seconds =       0.23 minutes


Warning! sapt0 does not have an associated derived wavefunction.The returned wavefunction is the dimer SCF wavefunction.


    Psi4 stopped on: Wednesday, 01 September 2021 01:52PM
    Psi4 wall time for execution: 0:00:14.03

*** Psi4 exiting successfully. Buy a developer a beer!
