
    -----------------------------------------------------------------------
          Psi4: An Open-Source Ab Initio Electronic Structure Package
                               Psi4 1.4rc3 

                         Git: Rev {HEAD} 080dba6 


    D. G. A. Smith, L. A. Burns, A. C. Simmonett, R. M. Parrish,
    M. C. Schieber, R. Galvelis, P. Kraus, H. Kruse, R. Di Remigio,
    A. Alenaizan, A. M. James, S. Lehtola, J. P. Misiewicz, M. Scheurer,
    R. A. Shaw, J. B. Schriber, Y. Xie, Z. L. Glick, D. A. Sirianni,
    J. S. O'Brien, J. M. Waldrop, A. Kumar, E. G. Hohenstein,
    B. P. Pritchard, B. R. Brooks, H. F. Schaefer III, A. Yu. Sokolov,
    K. Patkowski, A. E. DePrince III, U. Bozkaya, R. A. King,
    F. A. Evangelista, J. M. Turney, T. D. Crawford, C. D. Sherrill,
    J. Chem. Phys. 152(18) 184108 (2020). https://doi.org/10.1063/5.0006002

                            Additional Code Authors
    E. T. Seidl, C. L. Janssen, E. F. Valeev, M. L. Leininger,
    J. F. Gonthier, R. M. Richard, H. R. McAlexander, M. Saitow, X. Wang,
    P. Verma, and M. H. Lechner

             Previous Authors, Complete List of Code Contributors,
                       and Citations for Specific Modules
    https://github.com/psi4/psi4/blob/master/codemeta.json
    https://github.com/psi4/psi4/graphs/contributors
    http://psicode.org/psi4manual/master/introduction.html#citing-psifour

    -----------------------------------------------------------------------


    Psi4 started on: Wednesday, 01 September 2021 01:30PM

    Process ID: 18574
    Host:       ds1
    PSIDATADIR: /theoryfs2/ds/csargent/miniconda3/envs/cle/share/psi4
    Memory:     500.0 MiB
    Threads:    6
    
  ==> Input File <==

--------------------------------------------------------------------------
# PSI4 file produced by CrystaLattE

# Generated from:               acetic_acid.xyz
# Psithon input for N-mer:      2mer-0+52
# Number of atoms per monomer:  [8, 8]
# Number of replicas:           2
# COM priority:                 1.029959488963e-04
# Minimum COM separations:      11.289 
# Separation priority:          2.285849029245e-04
# Minimum monomer separations:  8.655 
# Cutoff priority:              1.397644516346e-05
# Nuclear repulsion energy:     291.6997715945321

memory 7 GB

molecule Dimer_0_52 {
  O           -5.53102237       2.93940290       1.97762624 
  O           -2.40708886       0.90817734       0.04905909 
  H           -0.50304887       1.37579205       4.63880908 
  H            0.00000000       4.25104285       3.09072238 
  H           -2.38948215       4.01916779       5.40195041 
  H           -3.74771411       0.47147930      -1.21557512 
  C           -1.41859782       2.98500500       3.84405190 
  C           -3.32263781       2.28628814       1.91221413 
--
  O            7.19108365      12.67351812     -14.37540224 
  O            4.06715015      14.70474369     -16.30396940 
  H            2.16311016      14.23712898     -11.71421941 
  H            1.66006128      11.36187817     -13.26230610 
  H            4.04954344      11.59375324     -10.95107808 
  H            5.40777540      15.14144173     -17.56860360 
  C            3.07865911      12.62791603     -12.50897659 
  C            4.98269910      13.32663289     -14.44081435 
units = au
no_com
no_reorient
}

set {
  e_convergence 10
  d_convergence 10
  scf_type df
  mp2_type df
  cc_type df
  freeze_core true
}

energy('sapt0/aug-cc-pvdz')

--------------------------------------------------------------------------

  Memory set to   6.519 GiB by Python driver.

Scratch directory: /scratch/csargent/psi4.17562.33784/

Scratch directory: /scratch/csargent/psi4.17562.33784/

  //>>>>>>>>>>>>>>>>>>>>>>>>>>>>>>>>>>>//
  //              Dimer HF             //
  //<<<<<<<<<<<<<<<<<<<<<<<<<<<<<<<<<<<//


*** tstart() called on ds1
*** at Wed Sep  1 13:30:07 2021

   => Loading Basis Set <=

    Name: AUG-CC-PVDZ
    Role: ORBITAL
    Keyword: BASIS
    atoms 1-2, 9-10  entry O          line   254 file /theoryfs2/ds/csargent/miniconda3/envs/cle/share/psi4/basis/aug-cc-pvdz.gbs 
    atoms 3-6, 11-14 entry H          line    40 file /theoryfs2/ds/csargent/miniconda3/envs/cle/share/psi4/basis/aug-cc-pvdz.gbs 
    atoms 7-8, 15-16 entry C          line   182 file /theoryfs2/ds/csargent/miniconda3/envs/cle/share/psi4/basis/aug-cc-pvdz.gbs 


         ---------------------------------------------------------
                                   SCF
               by Justin Turney, Rob Parrish, Andy Simmonett
                          and Daniel G. A. Smith
                              RHF Reference
                        6 Threads,   6675 MiB Core
         ---------------------------------------------------------

  ==> Geometry <==

    Molecular point group: c1
    Full point group: C1

    Geometry (in Bohr), charge = 0, multiplicity = 1:

       Center              X                  Y                   Z               Mass       
    ------------   -----------------  -----------------  -----------------  -----------------
         O           -5.531022370000     2.939402900000     1.977626240000    15.994914619570
         O           -2.407088860000     0.908177340000     0.049059090000    15.994914619570
         H           -0.503048870000     1.375792050000     4.638809080000     1.007825032230
         H            0.000000000000     4.251042850000     3.090722380000     1.007825032230
         H           -2.389482150000     4.019167790000     5.401950410000     1.007825032230
         H           -3.747714110000     0.471479300000    -1.215575120000     1.007825032230
         C           -1.418597820000     2.985005000000     3.844051900000    12.000000000000
         C           -3.322637810000     2.286288140000     1.912214130000    12.000000000000
         O            7.191083650000    12.673518120000   -14.375402240000    15.994914619570
         O            4.067150150000    14.704743690000   -16.303969400000    15.994914619570
         H            2.163110160000    14.237128980000   -11.714219410000     1.007825032230
         H            1.660061280000    11.361878170000   -13.262306100000     1.007825032230
         H            4.049543440000    11.593753240000   -10.951078080000     1.007825032230
         H            5.407775400000    15.141441730000   -17.568603600000     1.007825032230
         C            3.078659110000    12.627916030000   -12.508976590000    12.000000000000
         C            4.982699100000    13.326632890000   -14.440814350000    12.000000000000

  Running in c1 symmetry.

  Rotational constants: A =      0.03784  B =      0.00240  C =      0.00229 [cm^-1]
  Rotational constants: A =   1134.33940  B =     71.86199  C =     68.75247 [MHz]
  Nuclear repulsion =  291.699771700718088

  Charge       = 0
  Multiplicity = 1
  Electrons    = 64
  Nalpha       = 32
  Nbeta        = 32

  ==> Algorithm <==

  SCF Algorithm Type is DF.
  DIIS enabled.
  MOM disabled.
  Fractional occupation disabled.
  Guess Type is SAD.
  Energy threshold   = 1.00e-10
  Density threshold  = 1.00e-10
  Integral threshold = 1.00e-12

  ==> Primary Basis <==

  Basis Set: AUG-CC-PVDZ
    Blend: AUG-CC-PVDZ
    Number of shells: 112
    Number of basis functions: 256
    Number of Cartesian functions: 272
    Spherical Harmonics?: true
    Max angular momentum: 2

   => Loading Basis Set <=

    Name: (AUG-CC-PVDZ AUX)
    Role: JKFIT
    Keyword: DF_BASIS_SCF
    atoms 1-2, 9-10  entry O          line   270 file /theoryfs2/ds/csargent/miniconda3/envs/cle/share/psi4/basis/aug-cc-pvdz-jkfit.gbs 
    atoms 3-6, 11-14 entry H          line    70 file /theoryfs2/ds/csargent/miniconda3/envs/cle/share/psi4/basis/aug-cc-pvdz-jkfit.gbs 
    atoms 7-8, 15-16 entry C          line   154 file /theoryfs2/ds/csargent/miniconda3/envs/cle/share/psi4/basis/aug-cc-pvdz-jkfit.gbs 

  ==> Integral Setup <==

  ==> DiskDFJK: Density-Fitted J/K Matrices <==

    J tasked:                  Yes
    K tasked:                  Yes
    wK tasked:                  No
    OpenMP threads:              6
    Integrals threads:           6
    Memory [MiB]:             5006
    Algorithm:                Core
    Integral Cache:           SAVE
    Schwarz Cutoff:          1E-12
    Fitting Condition:       1E-10

   => Auxiliary Basis Set <=

  Basis Set: (AUG-CC-PVDZ AUX)
    Blend: AUG-CC-PVDZ-JKFIT
    Number of shells: 320
    Number of basis functions: 944
    Number of Cartesian functions: 1088
    Spherical Harmonics?: true
    Max angular momentum: 3

  Minimum eigenvalue in the overlap matrix is 1.0088023465E-04.
  Reciprocal condition number of the overlap matrix is 9.4712300673E-06.
    Using symmetric orthogonalization.

  ==> Pre-Iterations <==

  SCF Guess: Superposition of Atomic Densities via on-the-fly atomic UHF (no occupation information).

   -------------------------
    Irrep   Nso     Nmo    
   -------------------------
     A        256     256 
   -------------------------
    Total     256     256
   -------------------------

  ==> Iterations <==

                           Total Energy        Delta E     RMS |[F,P]|

   @DF-RHF iter SAD:  -453.97985911009738   -4.53980e+02   0.00000e+00 
   @DF-RHF iter   1:  -455.36190364435646   -1.38204e+00   3.22729e-03 DIIS
   @DF-RHF iter   2:  -455.60192119934749   -2.40018e-01   1.87291e-03 DIIS
   @DF-RHF iter   3:  -455.68267911853036   -8.07579e-02   3.30014e-04 DIIS
   @DF-RHF iter   4:  -455.68714775780768   -4.46864e-03   1.45993e-04 DIIS
   @DF-RHF iter   5:  -455.68810785297956   -9.60095e-04   3.42037e-05 DIIS
   @DF-RHF iter   6:  -455.68818206749893   -7.42145e-05   1.66506e-05 DIIS
   @DF-RHF iter   7:  -455.68820160648278   -1.95390e-05   5.42874e-06 DIIS
   @DF-RHF iter   8:  -455.68820476571477   -3.15923e-06   1.43556e-06 DIIS
   @DF-RHF iter   9:  -455.68820499868224   -2.32967e-07   3.01169e-07 DIIS
   @DF-RHF iter  10:  -455.68820500632950   -7.64726e-09   7.93389e-08 DIIS
   @DF-RHF iter  11:  -455.68820500673650   -4.06999e-10   2.54641e-08 DIIS
   @DF-RHF iter  12:  -455.68820500678038   -4.38831e-11   6.03923e-09 DIIS
   @DF-RHF iter  13:  -455.68820500678305   -2.67164e-12   1.28945e-09 DIIS
   @DF-RHF iter  14:  -455.68820500678333   -2.84217e-13   4.90161e-10 DIIS
   @DF-RHF iter  15:  -455.68820500678294    3.97904e-13   1.94748e-10 DIIS
   @DF-RHF iter  16:  -455.68820500678288    5.68434e-14   5.80849e-11 DIIS
  Energy and wave function converged.


  ==> Post-Iterations <==

    Orbital Energies [Eh]
    ---------------------

    Doubly Occupied:                                                      

       1A    -20.630253     2A    -20.629888     3A    -20.553593  
       4A    -20.553299     5A    -11.396869     6A    -11.396596  
       7A    -11.251592     8A    -11.251488     9A     -1.476633  
      10A     -1.476291    11A     -1.358278    12A     -1.357966  
      13A     -1.033658    14A     -1.033491    15A     -0.838663  
      16A     -0.838369    17A     -0.703846    18A     -0.703538  
      19A     -0.689178    20A     -0.688932    21A     -0.658484  
      22A     -0.658206    23A     -0.577264    24A     -0.576999  
      25A     -0.570364    26A     -0.570162    27A     -0.562038  
      28A     -0.561931    29A     -0.476149    30A     -0.475829  
      31A     -0.453210    32A     -0.452931  

    Virtual:                                                              

      33A      0.027397    34A      0.033863    35A      0.043688  
      36A      0.044434    37A      0.054092    38A      0.055504  
      39A      0.062632    40A      0.071355    41A      0.096290  
      42A      0.099949    43A      0.115011    44A      0.116374  
      45A      0.118492    46A      0.119297    47A      0.139819  
      48A      0.139919    49A      0.151207    50A      0.151980  
      51A      0.155233    52A      0.155848    53A      0.162569  
      54A      0.168899    55A      0.170601    56A      0.176049  
      57A      0.195251    58A      0.198423    59A      0.209568  
      60A      0.210012    61A      0.231983    62A      0.234011  
      63A      0.234276    64A      0.238371    65A      0.270206  
      66A      0.270624    67A      0.289755    68A      0.289937  
      69A      0.295311    70A      0.295828    71A      0.316109  
      72A      0.319312    73A      0.322390    74A      0.327439  
      75A      0.346356    76A      0.348675    77A      0.369750  
      78A      0.370437    79A      0.378237    80A      0.378604  
      81A      0.393722    82A      0.394190    83A      0.400822  
      84A      0.401415    85A      0.426007    86A      0.427614  
      87A      0.437124    88A      0.437918    89A      0.440142  
      90A      0.449962    91A      0.474446    92A      0.475927  
      93A      0.491662    94A      0.492453    95A      0.524272  
      96A      0.524306    97A      0.536500    98A      0.536886  
      99A      0.552613   100A      0.553640   101A      0.568106  
     102A      0.573096   103A      0.582986   104A      0.584273  
     105A      0.601616   106A      0.601696   107A      0.617090  
     108A      0.619775   109A      0.639619   110A      0.639918  
     111A      0.648428   112A      0.649350   113A      0.666086  
     114A      0.666331   115A      0.683178   116A      0.684554  
     117A      0.696694   118A      0.696859   119A      0.703035  
     120A      0.703258   121A      0.732472   122A      0.733439  
     123A      0.742175   124A      0.742587   125A      0.797896  
     126A      0.798662   127A      0.852890   128A      0.853182  
     129A      0.876234   130A      0.876554   131A      0.911592  
     132A      0.912317   133A      0.948919   134A      0.949306  
     135A      0.953834   136A      0.954182   137A      0.982377  
     138A      0.982777   139A      1.040403   140A      1.041587  
     141A      1.087528   142A      1.089614   143A      1.100783  
     144A      1.102921   145A      1.117608   146A      1.119074  
     147A      1.156812   148A      1.157131   149A      1.170688  
     150A      1.172524   151A      1.175205   152A      1.179009  
     153A      1.235368   154A      1.235915   155A      1.271464  
     156A      1.271719   157A      1.318719   158A      1.318837  
     159A      1.356866   160A      1.359493   161A      1.389754  
     162A      1.390270   163A      1.411966   164A      1.412499  
     165A      1.462082   166A      1.462431   167A      1.467059  
     168A      1.467842   169A      1.545297   170A      1.545631  
     171A      1.634305   172A      1.634909   173A      1.649034  
     174A      1.650168   175A      1.714134   176A      1.716391  
     177A      1.755118   178A      1.755405   179A      1.772262  
     180A      1.772827   181A      1.847414   182A      1.847605  
     183A      1.865024   184A      1.865089   185A      1.883217  
     186A      1.883325   187A      1.965269   188A      1.967433  
     189A      1.978853   190A      1.979214   191A      2.025504  
     192A      2.026358   193A      2.036816   194A      2.038251  
     195A      2.122108   196A      2.122569   197A      2.171373  
     198A      2.171596   199A      2.192219   200A      2.193483  
     201A      2.244054   202A      2.244833   203A      2.252970  
     204A      2.253204   205A      2.271616   206A      2.272035  
     207A      2.311290   208A      2.313193   209A      2.378932  
     210A      2.379170   211A      2.429568   212A      2.430011  
     213A      2.437591   214A      2.439337   215A      2.535626  
     216A      2.536148   217A      2.622902   218A      2.623396  
     219A      2.651682   220A      2.651805   221A      2.782898  
     222A      2.783382   223A      2.832978   224A      2.833482  
     225A      2.885445   226A      2.886513   227A      2.973819  
     228A      2.974420   229A      3.000832   230A      3.001438  
     231A      3.015625   232A      3.015979   233A      3.178197  
     234A      3.179092   235A      3.345592   236A      3.345770  
     237A      3.665970   238A      3.666288   239A      3.689702  
     240A      3.690025   241A      3.735624   242A      3.736216  
     243A      3.759069   244A      3.759169   245A      3.789546  
     246A      3.789867   247A      3.804468   248A      3.804882  
     249A      3.899542   250A      3.900273   251A      4.049622  
     252A      4.049913   253A      4.141430   254A      4.142100  
     255A      4.309262   256A      4.309558  

    Final Occupation by Irrep:
              A 
    DOCC [    32 ]

  @DF-RHF Final Energy:  -455.68820500678288

   => Energetics <=

    Nuclear Repulsion Energy =            291.6997717007180881
    One-Electron Energy =               -1201.8639808705058840
    Two-Electron Energy =                 454.4760041630049159
    Total Energy =                       -455.6882050067828800

Computation Completed


Properties will be evaluated at   0.000000,   0.000000,   0.000000 [a0]

Properties computed using the SCF density matrix

  Nuclear Dipole Moment: [e a0]
     X:    53.1220      Y:   499.6135      Z:  -397.9629

  Electronic Dipole Moment: [e a0]
     X:   -53.1215      Y:  -499.6134      Z:   397.7975

  Dipole Moment: [e a0]
     X:     0.0004      Y:     0.0000      Z:    -0.1655     Total:     0.1655

  Dipole Moment: [D]
     X:     0.0011      Y:     0.0001      Z:    -0.4205     Total:     0.4205


*** tstop() called on ds1 at Wed Sep  1 13:30:11 2021
Module time:
	user time   =      16.80 seconds =       0.28 minutes
	system time =       0.46 seconds =       0.01 minutes
	total time  =          4 seconds =       0.07 minutes
Total time:
	user time   =      16.80 seconds =       0.28 minutes
	system time =       0.46 seconds =       0.01 minutes
	total time  =          4 seconds =       0.07 minutes

  //>>>>>>>>>>>>>>>>>>>>>>>>>>>>>>>>>>>//
  //            Monomer A HF           //
  //<<<<<<<<<<<<<<<<<<<<<<<<<<<<<<<<<<<//


*** tstart() called on ds1
*** at Wed Sep  1 13:30:11 2021

   => Loading Basis Set <=

    Name: AUG-CC-PVDZ
    Role: ORBITAL
    Keyword: BASIS
    atoms 1-2, 9-10  entry O          line   254 file /theoryfs2/ds/csargent/miniconda3/envs/cle/share/psi4/basis/aug-cc-pvdz.gbs 
    atoms 3-6, 11-14 entry H          line    40 file /theoryfs2/ds/csargent/miniconda3/envs/cle/share/psi4/basis/aug-cc-pvdz.gbs 
    atoms 7-8, 15-16 entry C          line   182 file /theoryfs2/ds/csargent/miniconda3/envs/cle/share/psi4/basis/aug-cc-pvdz.gbs 


         ---------------------------------------------------------
                                   SCF
               by Justin Turney, Rob Parrish, Andy Simmonett
                          and Daniel G. A. Smith
                              RHF Reference
                        6 Threads,   6675 MiB Core
         ---------------------------------------------------------

  ==> Geometry <==

    Molecular point group: c1
    Full point group: C1

    Geometry (in Bohr), charge = 0, multiplicity = 1:

       Center              X                  Y                   Z               Mass       
    ------------   -----------------  -----------------  -----------------  -----------------
         O           -5.531022370000     2.939402900000     1.977626240000    15.994914619570
         O           -2.407088860000     0.908177340000     0.049059090000    15.994914619570
         H           -0.503048870000     1.375792050000     4.638809080000     1.007825032230
         H            0.000000000000     4.251042850000     3.090722380000     1.007825032230
         H           -2.389482150000     4.019167790000     5.401950410000     1.007825032230
         H           -3.747714110000     0.471479300000    -1.215575120000     1.007825032230
         C           -1.418597820000     2.985005000000     3.844051900000    12.000000000000
         C           -3.322637810000     2.286288140000     1.912214130000    12.000000000000
      Gh(O)           7.191083650000    12.673518120000   -14.375402240000    15.994914619570
      Gh(O)           4.067150150000    14.704743690000   -16.303969400000    15.994914619570
      Gh(H)           2.163110160000    14.237128980000   -11.714219410000     1.007825032230
      Gh(H)           1.660061280000    11.361878170000   -13.262306100000     1.007825032230
      Gh(H)           4.049543440000    11.593753240000   -10.951078080000     1.007825032230
      Gh(H)           5.407775400000    15.141441730000   -17.568603600000     1.007825032230
      Gh(C)           3.078659110000    12.627916030000   -12.508976590000    12.000000000000
      Gh(C)           4.982699100000    13.326632890000   -14.440814350000    12.000000000000

  Running in c1 symmetry.

  Rotational constants: A =      0.03784  B =      0.00240  C =      0.00229 [cm^-1]
  Rotational constants: A =   1134.33940  B =     71.86199  C =     68.75247 [MHz]
  Nuclear repulsion =  121.748430210971620

  Charge       = 0
  Multiplicity = 1
  Electrons    = 32
  Nalpha       = 16
  Nbeta        = 16

  ==> Algorithm <==

  SCF Algorithm Type is DF.
  DIIS enabled.
  MOM disabled.
  Fractional occupation disabled.
  Guess Type is SAD.
  Energy threshold   = 1.00e-10
  Density threshold  = 1.00e-10
  Integral threshold = 1.00e-12

  ==> Primary Basis <==

  Basis Set: AUG-CC-PVDZ
    Blend: AUG-CC-PVDZ
    Number of shells: 112
    Number of basis functions: 256
    Number of Cartesian functions: 272
    Spherical Harmonics?: true
    Max angular momentum: 2

   => Loading Basis Set <=

    Name: (AUG-CC-PVDZ AUX)
    Role: JKFIT
    Keyword: DF_BASIS_SCF
    atoms 1-2, 9-10  entry O          line   270 file /theoryfs2/ds/csargent/miniconda3/envs/cle/share/psi4/basis/aug-cc-pvdz-jkfit.gbs 
    atoms 3-6, 11-14 entry H          line    70 file /theoryfs2/ds/csargent/miniconda3/envs/cle/share/psi4/basis/aug-cc-pvdz-jkfit.gbs 
    atoms 7-8, 15-16 entry C          line   154 file /theoryfs2/ds/csargent/miniconda3/envs/cle/share/psi4/basis/aug-cc-pvdz-jkfit.gbs 

  ==> Integral Setup <==

  ==> DiskDFJK: Density-Fitted J/K Matrices <==

    J tasked:                  Yes
    K tasked:                  Yes
    wK tasked:                  No
    OpenMP threads:              6
    Integrals threads:           6
    Memory [MiB]:             5006
    Algorithm:                Core
    Integral Cache:           LOAD
    Schwarz Cutoff:          1E-12
    Fitting Condition:       1E-10

   => Auxiliary Basis Set <=

  Basis Set: (AUG-CC-PVDZ AUX)
    Blend: AUG-CC-PVDZ-JKFIT
    Number of shells: 320
    Number of basis functions: 944
    Number of Cartesian functions: 1088
    Spherical Harmonics?: true
    Max angular momentum: 3

  Minimum eigenvalue in the overlap matrix is 1.0088023465E-04.
  Reciprocal condition number of the overlap matrix is 9.4712300673E-06.
    Using symmetric orthogonalization.

  ==> Pre-Iterations <==

  SCF Guess: Superposition of Atomic Densities via on-the-fly atomic UHF (no occupation information).

   -------------------------
    Irrep   Nso     Nmo    
   -------------------------
     A        256     256 
   -------------------------
    Total     256     256
   -------------------------

  ==> Iterations <==

                           Total Energy        Delta E     RMS |[F,P]|

   @DF-RHF iter SAD:  -226.98992944140576   -2.26990e+02   0.00000e+00 
   @DF-RHF iter   1:  -227.68091219563718   -6.90983e-01   2.28212e-03 DIIS
   @DF-RHF iter   2:  -227.80091508629064   -1.20003e-01   1.32478e-03 DIIS
   @DF-RHF iter   3:  -227.84132043669698   -4.04054e-02   2.33581e-04 DIIS
   @DF-RHF iter   4:  -227.84355689840993   -2.23646e-03   1.03340e-04 DIIS
   @DF-RHF iter   5:  -227.84403780126127   -4.80903e-04   2.42136e-05 DIIS
   @DF-RHF iter   6:  -227.84407496924629   -3.71680e-05   1.17797e-05 DIIS
   @DF-RHF iter   7:  -227.84408475737300   -9.78813e-06   3.84273e-06 DIIS
   @DF-RHF iter   8:  -227.84408633896638   -1.58159e-06   1.01578e-06 DIIS
   @DF-RHF iter   9:  -227.84408645561777   -1.16651e-07   2.12953e-07 DIIS
   @DF-RHF iter  10:  -227.84408645943799   -3.82022e-09   5.61603e-08 DIIS
   @DF-RHF iter  11:  -227.84408645964172   -2.03727e-10   1.80148e-08 DIIS
   @DF-RHF iter  12:  -227.84408645966406   -2.23395e-11   4.26470e-09 DIIS
   @DF-RHF iter  13:  -227.84408645966568   -1.62004e-12   8.93597e-10 DIIS
   @DF-RHF iter  14:  -227.84408645966553    1.42109e-13   2.86730e-10 DIIS
   @DF-RHF iter  15:  -227.84408645966531    2.27374e-13   1.08078e-10 DIIS
   @DF-RHF iter  16:  -227.84408645966576   -4.54747e-13   2.86312e-11 DIIS
  Energy and wave function converged.


  ==> Post-Iterations <==

    Orbital Energies [Eh]
    ---------------------

    Doubly Occupied:                                                      

       1A    -20.629476     2A    -20.552804     3A    -11.396108  
       4A    -11.250978     5A     -1.475852     6A     -1.357486  
       7A     -1.032999     8A     -0.837930     9A     -0.703065  
      10A     -0.688465    11A     -0.657749    12A     -0.576538  
      13A     -0.569697    14A     -0.561403    15A     -0.475343  
      16A     -0.452433  

    Virtual:                                                              

      17A      0.022970    18A      0.031861    19A      0.044640  
      20A      0.044891    21A      0.054683    22A      0.055806  
      23A      0.058784    24A      0.065063    25A      0.087050  
      26A      0.099021    27A      0.103902    28A      0.111684  
      29A      0.115716    30A      0.117491    31A      0.119405  
      32A      0.139106    33A      0.140526    34A      0.141530  
      35A      0.146097    36A      0.153772    37A      0.159778  
      38A      0.169275    39A      0.171415    40A      0.177182  
      41A      0.196298    42A      0.205090    43A      0.209883  
      44A      0.214277    45A      0.227921    46A      0.234896  
      47A      0.235367    48A      0.244850    49A      0.259876  
      50A      0.264541    51A      0.271231    52A      0.276243  
      53A      0.285055    54A      0.290757    55A      0.296137  
      56A      0.319645    57A      0.322874    58A      0.334398  
      59A      0.338330    60A      0.348778    61A      0.368915  
      62A      0.370745    63A      0.378985    64A      0.394752  
      65A      0.398772    66A      0.401580    67A      0.410370  
      68A      0.426771    69A      0.430993    70A      0.437350  
      71A      0.438887    72A      0.444408    73A      0.461254  
      74A      0.475811    75A      0.490272    76A      0.492684  
      77A      0.497758    78A      0.516124    79A      0.524916  
      80A      0.537249    81A      0.542818    82A      0.543099  
      83A      0.554265    84A      0.559183    85A      0.570621  
      86A      0.584224    87A      0.586470    88A      0.602307  
      89A      0.616251    90A      0.618934    91A      0.635980  
      92A      0.636782    93A      0.640419    94A      0.649484  
      95A      0.666765    96A      0.674848    97A      0.684435  
      98A      0.689450    99A      0.697435   100A      0.700315  
     101A      0.703737   102A      0.728310   103A      0.733339  
     104A      0.742961   105A      0.753330   106A      0.762730  
     107A      0.786716   108A      0.799559   109A      0.815361  
     110A      0.819641   111A      0.848034   112A      0.853641  
     113A      0.877036   114A      0.887657   115A      0.896136  
     116A      0.912460   117A      0.947439   118A      0.949735  
     119A      0.954831   120A      0.957683   121A      0.975616  
     122A      0.983161   123A      1.037467   124A      1.041783  
     125A      1.044789   126A      1.089591   127A      1.102034  
     128A      1.106600   129A      1.118434   130A      1.157659  
     131A      1.162182   132A      1.172309   133A      1.176690  
     134A      1.190497   135A      1.236068   136A      1.260305  
     137A      1.269985   138A      1.272253   139A      1.319543  
     140A      1.329211   141A      1.358845   142A      1.383615  
     143A      1.390672   144A      1.396154   145A      1.413031  
     146A      1.435004   147A      1.457948   148A      1.462865  
     149A      1.467332   150A      1.468020   151A      1.469131  
     152A      1.537135   153A      1.546032   154A      1.568856  
     155A      1.635118   156A      1.650215   157A      1.683663  
     158A      1.715993   159A      1.717039   160A      1.755849  
     161A      1.772918   162A      1.799538   163A      1.848178  
     164A      1.865544   165A      1.883745   166A      1.886477  
     167A      1.936607   168A      1.966781   169A      1.979641  
     170A      2.026408   171A      2.038288   172A      2.070388  
     173A      2.122883   174A      2.172068   175A      2.193334  
     176A      2.244829   177A      2.250340   178A      2.253665  
     179A      2.264519   180A      2.272407   181A      2.273673  
     182A      2.302827   183A      2.312333   184A      2.336176  
     185A      2.338745   186A      2.361756   187A      2.376173  
     188A      2.379620   189A      2.430345   190A      2.438763  
     191A      2.466824   192A      2.505537   193A      2.536316  
     194A      2.585580   195A      2.623620   196A      2.652312  
     197A      2.664300   198A      2.699441   199A      2.753973  
     200A      2.783735   201A      2.785796   202A      2.823897  
     203A      2.833977   204A      2.886174   205A      2.915960  
     206A      2.975057   207A      3.001635   208A      3.016433  
     209A      3.043980   210A      3.179050   211A      3.182021  
     212A      3.278228   213A      3.310430   214A      3.346337  
     215A      3.357037   216A      3.431144   217A      3.486530  
     218A      3.662980   219A      3.666801   220A      3.690517  
     221A      3.736468   222A      3.739834   223A      3.759894  
     224A      3.790352   225A      3.805378   226A      3.900532  
     227A      4.025899   228A      4.050414   229A      4.142450  
     230A      4.153732   231A      4.310033   232A      4.504835  
     233A      4.616635   234A      4.724562   235A      4.925590  
     236A      4.969570   237A      4.977767   238A      5.001335  
     239A      5.016711   240A      5.033513   241A      5.052171  
     242A      5.221690   243A      5.243891   244A      5.615107  
     245A      5.660993   246A      5.791106   247A      5.869065  
     248A      6.052519   249A      6.228681   250A      6.520719  
     251A      6.790045   252A      7.092731   253A     18.346054  
     254A     18.940865   255A     33.525189   256A     33.563416  

    Final Occupation by Irrep:
              A 
    DOCC [    16 ]

  @DF-RHF Final Energy:  -227.84408645966576

   => Energetics <=

    Nuclear Repulsion Energy =            121.7484302109716197
    One-Electron Energy =                -552.7483759806424359
    Two-Electron Energy =                 203.1558593100050700
    Total Energy =                       -227.8440864596657605

Computation Completed


Properties will be evaluated at   0.000000,   0.000000,   0.000000 [a0]

Properties computed using the SCF density matrix

  Nuclear Dipole Moment: [e a0]
     X:   -98.5925      Y:    72.5259      Z:    62.6670

  Electronic Dipole Moment: [e a0]
     X:    99.4206      Y:   -72.8088      Z:   -62.7502

  Dipole Moment: [e a0]
     X:     0.8281      Y:    -0.2829      Z:    -0.0832     Total:     0.8790

  Dipole Moment: [D]
     X:     2.1047      Y:    -0.7191      Z:    -0.2116     Total:     2.2342


*** tstop() called on ds1 at Wed Sep  1 13:30:13 2021
Module time:
	user time   =      12.08 seconds =       0.20 minutes
	system time =       0.20 seconds =       0.00 minutes
	total time  =          2 seconds =       0.03 minutes
Total time:
	user time   =      29.27 seconds =       0.49 minutes
	system time =       0.68 seconds =       0.01 minutes
	total time  =          6 seconds =       0.10 minutes

  //>>>>>>>>>>>>>>>>>>>>>>>>>>>>>>>>>>>//
  //            Monomer B HF           //
  //<<<<<<<<<<<<<<<<<<<<<<<<<<<<<<<<<<<//


*** tstart() called on ds1
*** at Wed Sep  1 13:30:13 2021

   => Loading Basis Set <=

    Name: AUG-CC-PVDZ
    Role: ORBITAL
    Keyword: BASIS
    atoms 1-2, 9-10  entry O          line   254 file /theoryfs2/ds/csargent/miniconda3/envs/cle/share/psi4/basis/aug-cc-pvdz.gbs 
    atoms 3-6, 11-14 entry H          line    40 file /theoryfs2/ds/csargent/miniconda3/envs/cle/share/psi4/basis/aug-cc-pvdz.gbs 
    atoms 7-8, 15-16 entry C          line   182 file /theoryfs2/ds/csargent/miniconda3/envs/cle/share/psi4/basis/aug-cc-pvdz.gbs 


         ---------------------------------------------------------
                                   SCF
               by Justin Turney, Rob Parrish, Andy Simmonett
                          and Daniel G. A. Smith
                              RHF Reference
                        6 Threads,   6675 MiB Core
         ---------------------------------------------------------

  ==> Geometry <==

    Molecular point group: c1
    Full point group: C1

    Geometry (in Bohr), charge = 0, multiplicity = 1:

       Center              X                  Y                   Z               Mass       
    ------------   -----------------  -----------------  -----------------  -----------------
      Gh(O)          -5.531022370000     2.939402900000     1.977626240000    15.994914619570
      Gh(O)          -2.407088860000     0.908177340000     0.049059090000    15.994914619570
      Gh(H)          -0.503048870000     1.375792050000     4.638809080000     1.007825032230
      Gh(H)           0.000000000000     4.251042850000     3.090722380000     1.007825032230
      Gh(H)          -2.389482150000     4.019167790000     5.401950410000     1.007825032230
      Gh(H)          -3.747714110000     0.471479300000    -1.215575120000     1.007825032230
      Gh(C)          -1.418597820000     2.985005000000     3.844051900000    12.000000000000
      Gh(C)          -3.322637810000     2.286288140000     1.912214130000    12.000000000000
         O            7.191083650000    12.673518120000   -14.375402240000    15.994914619570
         O            4.067150150000    14.704743690000   -16.303969400000    15.994914619570
         H            2.163110160000    14.237128980000   -11.714219410000     1.007825032230
         H            1.660061280000    11.361878170000   -13.262306100000     1.007825032230
         H            4.049543440000    11.593753240000   -10.951078080000     1.007825032230
         H            5.407775400000    15.141441730000   -17.568603600000     1.007825032230
         C            3.078659110000    12.627916030000   -12.508976590000    12.000000000000
         C            4.982699100000    13.326632890000   -14.440814350000    12.000000000000

  Running in c1 symmetry.

  Rotational constants: A =      0.03784  B =      0.00240  C =      0.00229 [cm^-1]
  Rotational constants: A =   1134.33940  B =     71.86199  C =     68.75247 [MHz]
  Nuclear repulsion =  121.748430275274615

  Charge       = 0
  Multiplicity = 1
  Electrons    = 32
  Nalpha       = 16
  Nbeta        = 16

  ==> Algorithm <==

  SCF Algorithm Type is DF.
  DIIS enabled.
  MOM disabled.
  Fractional occupation disabled.
  Guess Type is SAD.
  Energy threshold   = 1.00e-10
  Density threshold  = 1.00e-10
  Integral threshold = 1.00e-12

  ==> Primary Basis <==

  Basis Set: AUG-CC-PVDZ
    Blend: AUG-CC-PVDZ
    Number of shells: 112
    Number of basis functions: 256
    Number of Cartesian functions: 272
    Spherical Harmonics?: true
    Max angular momentum: 2

   => Loading Basis Set <=

    Name: (AUG-CC-PVDZ AUX)
    Role: JKFIT
    Keyword: DF_BASIS_SCF
    atoms 1-2, 9-10  entry O          line   270 file /theoryfs2/ds/csargent/miniconda3/envs/cle/share/psi4/basis/aug-cc-pvdz-jkfit.gbs 
    atoms 3-6, 11-14 entry H          line    70 file /theoryfs2/ds/csargent/miniconda3/envs/cle/share/psi4/basis/aug-cc-pvdz-jkfit.gbs 
    atoms 7-8, 15-16 entry C          line   154 file /theoryfs2/ds/csargent/miniconda3/envs/cle/share/psi4/basis/aug-cc-pvdz-jkfit.gbs 

  ==> Integral Setup <==

  ==> DiskDFJK: Density-Fitted J/K Matrices <==

    J tasked:                  Yes
    K tasked:                  Yes
    wK tasked:                  No
    OpenMP threads:              6
    Integrals threads:           6
    Memory [MiB]:             5006
    Algorithm:                Core
    Integral Cache:           LOAD
    Schwarz Cutoff:          1E-12
    Fitting Condition:       1E-10

   => Auxiliary Basis Set <=

  Basis Set: (AUG-CC-PVDZ AUX)
    Blend: AUG-CC-PVDZ-JKFIT
    Number of shells: 320
    Number of basis functions: 944
    Number of Cartesian functions: 1088
    Spherical Harmonics?: true
    Max angular momentum: 3

  Minimum eigenvalue in the overlap matrix is 1.0088023465E-04.
  Reciprocal condition number of the overlap matrix is 9.4712300673E-06.
    Using symmetric orthogonalization.

  ==> Pre-Iterations <==

  SCF Guess: Superposition of Atomic Densities via on-the-fly atomic UHF (no occupation information).

   -------------------------
    Irrep   Nso     Nmo    
   -------------------------
     A        256     256 
   -------------------------
    Total     256     256
   -------------------------

  ==> Iterations <==

                           Total Energy        Delta E     RMS |[F,P]|

   @DF-RHF iter SAD:  -226.98992944397261   -2.26990e+02   0.00000e+00 
   @DF-RHF iter   1:  -227.68091192556594   -6.90982e-01   2.28212e-03 DIIS
   @DF-RHF iter   2:  -227.80091478079316   -1.20003e-01   1.32478e-03 DIIS
   @DF-RHF iter   3:  -227.84132029261315   -4.04055e-02   2.33582e-04 DIIS
   @DF-RHF iter   4:  -227.84355676441731   -2.23647e-03   1.03339e-04 DIIS
   @DF-RHF iter   5:  -227.84403766865444   -4.80904e-04   2.42138e-05 DIIS
   @DF-RHF iter   6:  -227.84407483703839   -3.71684e-05   1.17798e-05 DIIS
   @DF-RHF iter   7:  -227.84408462528489   -9.78825e-06   3.84275e-06 DIIS
   @DF-RHF iter   8:  -227.84408620689061   -1.58161e-06   1.01578e-06 DIIS
   @DF-RHF iter   9:  -227.84408632354285   -1.16652e-07   2.12956e-07 DIIS
   @DF-RHF iter  10:  -227.84408632736358   -3.82073e-09   5.61615e-08 DIIS
   @DF-RHF iter  11:  -227.84408632756731   -2.03727e-10   1.80150e-08 DIIS
   @DF-RHF iter  12:  -227.84408632758925   -2.19416e-11   4.26474e-09 DIIS
   @DF-RHF iter  13:  -227.84408632759073   -1.47793e-12   8.93576e-10 DIIS
   @DF-RHF iter  14:  -227.84408632759076   -2.84217e-14   2.86699e-10 DIIS
   @DF-RHF iter  15:  -227.84408632759104   -2.84217e-13   1.08056e-10 DIIS
   @DF-RHF iter  16:  -227.84408632759076    2.84217e-13   2.86083e-11 DIIS
  Energy and wave function converged.


  ==> Post-Iterations <==

    Orbital Energies [Eh]
    ---------------------

    Doubly Occupied:                                                      

       1A    -20.629476     2A    -20.552804     3A    -11.396108  
       4A    -11.250979     5A     -1.475853     6A     -1.357487  
       7A     -1.032999     8A     -0.837930     9A     -0.703066  
      10A     -0.688465    11A     -0.657749    12A     -0.576538  
      13A     -0.569697    14A     -0.561403    15A     -0.475344  
      16A     -0.452434  

    Virtual:                                                              

      17A      0.022813    18A      0.032133    19A      0.042703  
      20A      0.046267    21A      0.054081    22A      0.055442  
      23A      0.056074    24A      0.070525    25A      0.084828  
      26A      0.097449    27A      0.105039    28A      0.110863  
      29A      0.117031    30A      0.117976    31A      0.119368  
      32A      0.139579    33A      0.139737    34A      0.141891  
      35A      0.146768    36A      0.152745    37A      0.156418  
      38A      0.168601    39A      0.174057    40A      0.175721  
      41A      0.197726    42A      0.205348    43A      0.209681  
      44A      0.214463    45A      0.225846    46A      0.233731  
      47A      0.236342    48A      0.245512    49A      0.260845  
      50A      0.264171    51A      0.271500    52A      0.276410  
      53A      0.285508    54A      0.290306    55A      0.296021  
      56A      0.320603    57A      0.322840    58A      0.332401  
      59A      0.335875    60A      0.347947    61A      0.369161  
      62A      0.370685    63A      0.378891    64A      0.394198  
      65A      0.399605    66A      0.401595    67A      0.410286  
      68A      0.427117    69A      0.430769    70A      0.437497  
      71A      0.439692    72A      0.448139    73A      0.459723  
      74A      0.475834    75A      0.489796    76A      0.492335  
      77A      0.496819    78A      0.515854    79A      0.524769  
      80A      0.537229    81A      0.541616    82A      0.542997  
      83A      0.553580    84A      0.558994    85A      0.572307  
      86A      0.583902    87A      0.586515    88A      0.602133  
      89A      0.615640    90A      0.618935    91A      0.635762  
      92A      0.636356    93A      0.640332    94A      0.649421  
      95A      0.666728    96A      0.675179    97A      0.684381  
      98A      0.689439    99A      0.697238   100A      0.700471  
     101A      0.703632   102A      0.727657   103A      0.733721  
     104A      0.742817   105A      0.753118   106A      0.760005  
     107A      0.786647   108A      0.798470   109A      0.815224  
     110A      0.819530   111A      0.847975   112A      0.853640  
     113A      0.877022   114A      0.888448   115A      0.897392  
     116A      0.913087   117A      0.946953   118A      0.949714  
     119A      0.954453   120A      0.957545   121A      0.975224  
     122A      0.983196   123A      1.037238   124A      1.041387  
     125A      1.045010   126A      1.089106   127A      1.102542  
     128A      1.105901   129A      1.119534   130A      1.157562  
     131A      1.162011   132A      1.172757   133A      1.178131  
     134A      1.190389   135A      1.236352   136A      1.259986  
     137A      1.269460   138A      1.272203   139A      1.319255  
     140A      1.328827   141A      1.358732   142A      1.383362  
     143A      1.390516   144A      1.395526   145A      1.412475  
     146A      1.433872   147A      1.457606   148A      1.462866  
     149A      1.466947   150A      1.468090   151A      1.468959  
     152A      1.537393   153A      1.546071   154A      1.568609  
     155A      1.635359   156A      1.650096   157A      1.683275  
     158A      1.715600   159A      1.717064   160A      1.755859  
     161A      1.773259   162A      1.799585   163A      1.848084  
     164A      1.865511   165A      1.882521   166A      1.883815  
     167A      1.936455   168A      1.967250   169A      1.979672  
     170A      2.026712   171A      2.037917   172A      2.070228  
     173A      2.123006   174A      2.172050   175A      2.193537  
     176A      2.245155   177A      2.250374   178A      2.253676  
     179A      2.264553   180A      2.272389   181A      2.273316  
     182A      2.302452   183A      2.313236   184A      2.336285  
     185A      2.338817   186A      2.361597   187A      2.376038  
     188A      2.379624   189A      2.430425   190A      2.439274  
     191A      2.466465   192A      2.505292   193A      2.536605  
     194A      2.585358   195A      2.623849   196A      2.652314  
     197A      2.664045   198A      2.698947   199A      2.753821  
     200A      2.783660   201A      2.785713   202A      2.823910  
     203A      2.833667   204A      2.886932   205A      2.915415  
     206A      2.974307   207A      3.001715   208A      3.016332  
     209A      3.042145   210A      3.179352   211A      3.181972  
     212A      3.278500   213A      3.310210   214A      3.346189  
     215A      3.356539   216A      3.431068   217A      3.486928  
     218A      3.662487   219A      3.666707   220A      3.690429  
     221A      3.736594   222A      3.739484   223A      3.759663  
     224A      3.790330   225A      3.805272   226A      3.900518  
     227A      4.025860   228A      4.050382   229A      4.142354  
     230A      4.153262   231A      4.309974   232A      4.504263  
     233A      4.616389   234A      4.724412   235A      4.925231  
     236A      4.969100   237A      4.977470   238A      5.001381  
     239A      5.016291   240A      5.033129   241A      5.052009  
     242A      5.221446   243A      5.243736   244A      5.614622  
     245A      5.660935   246A      5.790958   247A      5.868473  
     248A      6.052478   249A      6.228200   250A      6.520209  
     251A      6.789897   252A      7.092335   253A     18.345847  
     254A     18.940787   255A     33.524849   256A     33.562979  

    Final Occupation by Irrep:
              A 
    DOCC [    16 ]

  @DF-RHF Final Energy:  -227.84408632759076

   => Energetics <=

    Nuclear Repulsion Energy =            121.7484302752746146
    One-Electron Energy =                -552.7483696159063129
    Two-Electron Energy =                 203.1558530130409679
    Total Energy =                       -227.8440863275907589

Computation Completed


Properties will be evaluated at   0.000000,   0.000000,   0.000000 [a0]

Properties computed using the SCF density matrix

  Nuclear Dipole Moment: [e a0]
     X:   151.7145      Y:   427.0876      Z:  -460.6299

  Electronic Dipole Moment: [e a0]
     X:  -152.5426      Y:  -426.8047      Z:   460.5467

  Dipole Moment: [e a0]
     X:    -0.8281      Y:     0.2829      Z:    -0.0832     Total:     0.8790

  Dipole Moment: [D]
     X:    -2.1047      Y:     0.7191      Z:    -0.2116     Total:     2.2342


*** tstop() called on ds1 at Wed Sep  1 13:30:16 2021
Module time:
	user time   =      12.40 seconds =       0.21 minutes
	system time =       0.18 seconds =       0.00 minutes
	total time  =          3 seconds =       0.05 minutes
Total time:
	user time   =      41.93 seconds =       0.70 minutes
	system time =       0.87 seconds =       0.01 minutes
	total time  =          9 seconds =       0.15 minutes
  Constructing Basis Sets for SAPT...

   => Loading Basis Set <=

    Name: (AUG-CC-PVDZ AUX)
    Role: RIFIT
    Keyword: DF_BASIS_SAPT
    atoms 1-2, 9-10  entry O          line   204 file /theoryfs2/ds/csargent/miniconda3/envs/cle/share/psi4/basis/aug-cc-pvdz-ri.gbs 
    atoms 3-6, 11-14 entry H          line    30 file /theoryfs2/ds/csargent/miniconda3/envs/cle/share/psi4/basis/aug-cc-pvdz-ri.gbs 
    atoms 7-8, 15-16 entry C          line   112 file /theoryfs2/ds/csargent/miniconda3/envs/cle/share/psi4/basis/aug-cc-pvdz-ri.gbs 


  //>>>>>>>>>>>>>>>>>>>>>>>>>>>>>>>>>>>//
  //               SAPT0               //
  //<<<<<<<<<<<<<<<<<<<<<<<<<<<<<<<<<<<//


*** tstart() called on ds1
*** at Wed Sep  1 13:30:16 2021

        SAPT0  
    Ed Hohenstein
     6 June 2009

      Orbital Information
  --------------------------
    NSO        =       256
    NMO        =       256
    NRI        =       760
    NOCC A     =        16
    NOCC B     =        16
    FOCC A     =         4
    FOCC B     =         4
    NVIR A     =       240
    NVIR B     =       240

    Elst10,r            =    -0.000031832047 [Eh]
    Exch10              =     0.000000000418 [Eh]
    Exch10 (S^2)        =     0.000000000418 [Eh]

    Iter     Energy [mEh]          dE [mEh]         Residual      Time [s]
       1      -0.00020905       0.000209047       0.114385635             0
       2      -0.00020807      -0.000000978       0.041408743             0
       3      -0.00022071       0.000012643       0.017958719             0
       4      -0.00022571       0.000005002       0.003473134             0
       5      -0.00022485      -0.000000868       0.001718914             0
       6      -0.00022472      -0.000000120       0.000585964             0
       7      -0.00022480       0.000000076       0.000205952             0
       8      -0.00022481       0.000000014       0.000056663             0
       9      -0.00022481      -0.000000004       0.000015198             1
      10      -0.00022481      -0.000000001       0.000003764             1
      11      -0.00022481       0.000000000       0.000001085             1
      12      -0.00022481      -0.000000000       0.000000453             1

    CHF Iterations converged


    Iter     Energy [mEh]          dE [mEh]         Residual      Time [s]
       1      -0.00011144       0.000111441       0.088000956             0
       2      -0.00011479       0.000003352       0.036729625             0
       3      -0.00012576       0.000010964       0.010783172             0
       4      -0.00012738       0.000001627       0.002658209             0
       5      -0.00012714      -0.000000247       0.001512790             0
       6      -0.00012696      -0.000000178       0.000434104             0
       7      -0.00012701       0.000000051       0.000137499             0
       8      -0.00012702       0.000000007       0.000030718             0
       9      -0.00012702      -0.000000002       0.000010872             0
      10      -0.00012702      -0.000000001       0.000004614             1
      11      -0.00012702       0.000000000       0.000001476             1
      12      -0.00012702       0.000000000       0.000000460             1

    CHF Iterations converged

    Ind20,r (A<-B)      =    -0.000000224810 [Eh]
    Ind20,r (B<-A)      =    -0.000000127016 [Eh]
    Ind20,r             =    -0.000000351825 [Eh]
    Exch-Ind20,r (A<-B) =     0.000000000738 [Eh]
    Exch-Ind20,r (B<-A) =     0.000000000118 [Eh]
    Exch-Ind20,r        =     0.000000000856 [Eh]
    Disp20              =    -0.000007666199 [Eh]
    Disp20 (SS)         =    -0.000003833100 [Eh]
    Disp20 (OS)         =    -0.000003833100 [Eh]
    Exch-Disp20         =     0.000000000065 [Eh]
    Exch-Disp20 (SS)    =     0.000000000053 [Eh]
    Exch-Disp20 (OS)    =     0.000000000012 [Eh]

    SAPT Results 
  --------------------------------------------------------------------------------------------------------
    Electrostatics                 -0.03183205 [mEh]      -0.01997491 [kcal/mol]      -0.08357503 [kJ/mol]
      Elst10,r                     -0.03183205 [mEh]      -0.01997491 [kcal/mol]      -0.08357503 [kJ/mol]

    Exchange                        0.00000042 [mEh]       0.00000026 [kcal/mol]       0.00000110 [kJ/mol]
      Exch10                        0.00000042 [mEh]       0.00000026 [kcal/mol]       0.00000110 [kJ/mol]
      Exch10(S^2)                   0.00000042 [mEh]       0.00000026 [kcal/mol]       0.00000110 [kJ/mol]

    Induction                      -0.00038790 [mEh]      -0.00024341 [kcal/mol]      -0.00101843 [kJ/mol]
      Ind20,r                      -0.00035183 [mEh]      -0.00022077 [kcal/mol]      -0.00092372 [kJ/mol]
      Exch-Ind20,r                  0.00000086 [mEh]       0.00000054 [kcal/mol]       0.00000225 [kJ/mol]
      delta HF,r (2)               -0.00003693 [mEh]      -0.00002317 [kcal/mol]      -0.00009695 [kJ/mol]

    Dispersion                     -0.00766613 [mEh]      -0.00481057 [kcal/mol]      -0.02012743 [kJ/mol]
      Disp20                       -0.00766620 [mEh]      -0.00481061 [kcal/mol]      -0.02012760 [kJ/mol]
      Exch-Disp20                   0.00000007 [mEh]       0.00000004 [kcal/mol]       0.00000017 [kJ/mol]
      Disp20 (SS)                  -0.00383310 [mEh]      -0.00240531 [kcal/mol]      -0.01006380 [kJ/mol]
      Disp20 (OS)                  -0.00383310 [mEh]      -0.00240531 [kcal/mol]      -0.01006380 [kJ/mol]
      Exch-Disp20 (SS)              0.00000005 [mEh]       0.00000003 [kcal/mol]       0.00000014 [kJ/mol]
      Exch-Disp20 (OS)              0.00000001 [mEh]       0.00000001 [kcal/mol]       0.00000003 [kJ/mol]

  Total HF                         -0.03221953 [mEh]      -0.02021806 [kcal/mol]      -0.08459235 [kJ/mol]
  Total SAPT0                      -0.03988566 [mEh]      -0.02502863 [kcal/mol]      -0.10471979 [kJ/mol]

  Special recipe for scaled SAPT0 (see Manual):
    Electrostatics sSAPT0          -0.03183205 [mEh]      -0.01997491 [kcal/mol]      -0.08357503 [kJ/mol]
    Exchange sSAPT0                 0.00000042 [mEh]       0.00000026 [kcal/mol]       0.00000110 [kJ/mol]
    Induction sSAPT0               -0.00038790 [mEh]      -0.00024341 [kcal/mol]      -0.00101843 [kJ/mol]
    Dispersion sSAPT0              -0.00766613 [mEh]      -0.00481057 [kcal/mol]      -0.02012743 [kJ/mol]
  Total sSAPT0                     -0.03988566 [mEh]      -0.02502863 [kcal/mol]      -0.10471979 [kJ/mol]
  --------------------------------------------------------------------------------------------------------

*** tstop() called on ds1 at Wed Sep  1 13:30:22 2021
Module time:
	user time   =      29.00 seconds =       0.48 minutes
	system time =       2.60 seconds =       0.04 minutes
	total time  =          6 seconds =       0.10 minutes
Total time:
	user time   =      71.45 seconds =       1.19 minutes
	system time =       3.49 seconds =       0.06 minutes
	total time  =         15 seconds =       0.25 minutes


Warning! sapt0 does not have an associated derived wavefunction.The returned wavefunction is the dimer SCF wavefunction.


    Psi4 stopped on: Wednesday, 01 September 2021 01:30PM
    Psi4 wall time for execution: 0:00:15.27

*** Psi4 exiting successfully. Buy a developer a beer!
