
    -----------------------------------------------------------------------
          Psi4: An Open-Source Ab Initio Electronic Structure Package
                               Psi4 1.4rc3 

                         Git: Rev {HEAD} 080dba6 


    D. G. A. Smith, L. A. Burns, A. C. Simmonett, R. M. Parrish,
    M. C. Schieber, R. Galvelis, P. Kraus, H. Kruse, R. Di Remigio,
    A. Alenaizan, A. M. James, S. Lehtola, J. P. Misiewicz, M. Scheurer,
    R. A. Shaw, J. B. Schriber, Y. Xie, Z. L. Glick, D. A. Sirianni,
    J. S. O'Brien, J. M. Waldrop, A. Kumar, E. G. Hohenstein,
    B. P. Pritchard, B. R. Brooks, H. F. Schaefer III, A. Yu. Sokolov,
    K. Patkowski, A. E. DePrince III, U. Bozkaya, R. A. King,
    F. A. Evangelista, J. M. Turney, T. D. Crawford, C. D. Sherrill,
    J. Chem. Phys. 152(18) 184108 (2020). https://doi.org/10.1063/5.0006002

                            Additional Code Authors
    E. T. Seidl, C. L. Janssen, E. F. Valeev, M. L. Leininger,
    J. F. Gonthier, R. M. Richard, H. R. McAlexander, M. Saitow, X. Wang,
    P. Verma, and M. H. Lechner

             Previous Authors, Complete List of Code Contributors,
                       and Citations for Specific Modules
    https://github.com/psi4/psi4/blob/master/codemeta.json
    https://github.com/psi4/psi4/graphs/contributors
    http://psicode.org/psi4manual/master/introduction.html#citing-psifour

    -----------------------------------------------------------------------


    Psi4 started on: Wednesday, 01 September 2021 01:59PM

    Process ID: 20571
    Host:       ds1
    PSIDATADIR: /theoryfs2/ds/csargent/miniconda3/envs/cle/share/psi4
    Memory:     500.0 MiB
    Threads:    6
    
  ==> Input File <==

--------------------------------------------------------------------------
# PSI4 file produced by CrystaLattE

# Generated from:               acetic_acid.xyz
# Psithon input for N-mer:      2mer-0+11
# Number of atoms per monomer:  [8, 8]
# Number of replicas:           2
# COM priority:                 2.695949421311e-04
# Minimum COM separations:      8.192 
# Separation priority:          7.720899920438e-04
# Minimum monomer separations:  5.768 
# Cutoff priority:              7.083108549419e-05
# Nuclear repulsion energy:     309.71119358907094

memory 7 GB

molecule Dimer_0_11 {
  O           -5.53102237       2.93940290       1.97762624 
  O           -2.40708886       0.90817734       0.04905909 
  H           -0.50304887       1.37579205       4.63880908 
  H            0.00000000       4.25104285       3.09072238 
  H           -2.38948215       4.01916779       5.40195041 
  H           -3.74771411       0.47147930      -1.21557512 
  C           -1.41859782       2.98500500       3.84405190 
  C           -3.32263781       2.28628814       1.91221413 
--
  O            7.19108365     -10.51398835      -3.47338325 
  O            4.06715015      -8.48276279      -5.40195041 
  H            2.16311016      -8.95037750      -0.81220041 
  H            1.66006128     -11.82562830      -2.36028711 
  H            4.04954344     -11.59375324      -0.04905909 
  H            5.40777540      -8.04606475      -6.66658461 
  C            3.07865911     -10.55959045      -1.60695760 
  C            4.98269910      -9.86087359      -3.53879536 
units = au
no_com
no_reorient
}

set {
  e_convergence 10
  d_convergence 10
  scf_type df
  mp2_type df
  cc_type df
  freeze_core true
}

energy('sapt0/aug-cc-pvdz')

--------------------------------------------------------------------------

  Memory set to   6.519 GiB by Python driver.

Scratch directory: /scratch/csargent/psi4.17562.33784/

Scratch directory: /scratch/csargent/psi4.17562.33784/

  //>>>>>>>>>>>>>>>>>>>>>>>>>>>>>>>>>>>//
  //              Dimer HF             //
  //<<<<<<<<<<<<<<<<<<<<<<<<<<<<<<<<<<<//


*** tstart() called on ds1
*** at Wed Sep  1 13:59:02 2021

   => Loading Basis Set <=

    Name: AUG-CC-PVDZ
    Role: ORBITAL
    Keyword: BASIS
    atoms 1-2, 9-10  entry O          line   254 file /theoryfs2/ds/csargent/miniconda3/envs/cle/share/psi4/basis/aug-cc-pvdz.gbs 
    atoms 3-6, 11-14 entry H          line    40 file /theoryfs2/ds/csargent/miniconda3/envs/cle/share/psi4/basis/aug-cc-pvdz.gbs 
    atoms 7-8, 15-16 entry C          line   182 file /theoryfs2/ds/csargent/miniconda3/envs/cle/share/psi4/basis/aug-cc-pvdz.gbs 


         ---------------------------------------------------------
                                   SCF
               by Justin Turney, Rob Parrish, Andy Simmonett
                          and Daniel G. A. Smith
                              RHF Reference
                        6 Threads,   6675 MiB Core
         ---------------------------------------------------------

  ==> Geometry <==

    Molecular point group: c1
    Full point group: C1

    Geometry (in Bohr), charge = 0, multiplicity = 1:

       Center              X                  Y                   Z               Mass       
    ------------   -----------------  -----------------  -----------------  -----------------
         O           -5.531022370000     2.939402900000     1.977626240000    15.994914619570
         O           -2.407088860000     0.908177340000     0.049059090000    15.994914619570
         H           -0.503048870000     1.375792050000     4.638809080000     1.007825032230
         H            0.000000000000     4.251042850000     3.090722380000     1.007825032230
         H           -2.389482150000     4.019167790000     5.401950410000     1.007825032230
         H           -3.747714110000     0.471479300000    -1.215575120000     1.007825032230
         C           -1.418597820000     2.985005000000     3.844051900000    12.000000000000
         C           -3.322637810000     2.286288140000     1.912214130000    12.000000000000
         O            7.191083650000   -10.513988350000    -3.473383250000    15.994914619570
         O            4.067150150000    -8.482762790000    -5.401950410000    15.994914619570
         H            2.163110160000    -8.950377500000    -0.812200410000     1.007825032230
         H            1.660061280000   -11.825628300000    -2.360287110000     1.007825032230
         H            4.049543440000   -11.593753240000    -0.049059090000     1.007825032230
         H            5.407775400000    -8.046064750000    -6.666584610000     1.007825032230
         C            3.078659110000   -10.559590450000    -1.606957600000    12.000000000000
         C            4.982699100000    -9.860873590000    -3.538795360000    12.000000000000

  Running in c1 symmetry.

  Rotational constants: A =      0.08676  B =      0.00645  C =      0.00635 [cm^-1]
  Rotational constants: A =   2600.94806  B =    193.29896  C =    190.27091 [MHz]
  Nuclear repulsion =  309.711193739014448

  Charge       = 0
  Multiplicity = 1
  Electrons    = 64
  Nalpha       = 32
  Nbeta        = 32

  ==> Algorithm <==

  SCF Algorithm Type is DF.
  DIIS enabled.
  MOM disabled.
  Fractional occupation disabled.
  Guess Type is SAD.
  Energy threshold   = 1.00e-10
  Density threshold  = 1.00e-10
  Integral threshold = 1.00e-12

  ==> Primary Basis <==

  Basis Set: AUG-CC-PVDZ
    Blend: AUG-CC-PVDZ
    Number of shells: 112
    Number of basis functions: 256
    Number of Cartesian functions: 272
    Spherical Harmonics?: true
    Max angular momentum: 2

   => Loading Basis Set <=

    Name: (AUG-CC-PVDZ AUX)
    Role: JKFIT
    Keyword: DF_BASIS_SCF
    atoms 1-2, 9-10  entry O          line   270 file /theoryfs2/ds/csargent/miniconda3/envs/cle/share/psi4/basis/aug-cc-pvdz-jkfit.gbs 
    atoms 3-6, 11-14 entry H          line    70 file /theoryfs2/ds/csargent/miniconda3/envs/cle/share/psi4/basis/aug-cc-pvdz-jkfit.gbs 
    atoms 7-8, 15-16 entry C          line   154 file /theoryfs2/ds/csargent/miniconda3/envs/cle/share/psi4/basis/aug-cc-pvdz-jkfit.gbs 

  ==> Integral Setup <==

  ==> DiskDFJK: Density-Fitted J/K Matrices <==

    J tasked:                  Yes
    K tasked:                  Yes
    wK tasked:                  No
    OpenMP threads:              6
    Integrals threads:           6
    Memory [MiB]:             5006
    Algorithm:                Core
    Integral Cache:           SAVE
    Schwarz Cutoff:          1E-12
    Fitting Condition:       1E-10

   => Auxiliary Basis Set <=

  Basis Set: (AUG-CC-PVDZ AUX)
    Blend: AUG-CC-PVDZ-JKFIT
    Number of shells: 320
    Number of basis functions: 944
    Number of Cartesian functions: 1088
    Spherical Harmonics?: true
    Max angular momentum: 3

  Minimum eigenvalue in the overlap matrix is 9.5279236686E-05.
  Reciprocal condition number of the overlap matrix is 8.8927762320E-06.
    Using symmetric orthogonalization.

  ==> Pre-Iterations <==

  SCF Guess: Superposition of Atomic Densities via on-the-fly atomic UHF (no occupation information).

   -------------------------
    Irrep   Nso     Nmo    
   -------------------------
     A        256     256 
   -------------------------
    Total     256     256
   -------------------------

  ==> Iterations <==

                           Total Energy        Delta E     RMS |[F,P]|

   @DF-RHF iter SAD:  -453.97992804632742   -4.53980e+02   0.00000e+00 
   @DF-RHF iter   1:  -455.36176027462136   -1.38183e+00   3.22765e-03 DIIS
   @DF-RHF iter   2:  -455.60170648690570   -2.39946e-01   1.87498e-03 DIIS
   @DF-RHF iter   3:  -455.68263848727577   -8.09320e-02   3.31168e-04 DIIS
   @DF-RHF iter   4:  -455.68712242369782   -4.48394e-03   1.46529e-04 DIIS
   @DF-RHF iter   5:  -455.68808843110310   -9.66007e-04   3.43501e-05 DIIS
   @DF-RHF iter   6:  -455.68816300208175   -7.45710e-05   1.66705e-05 DIIS
   @DF-RHF iter   7:  -455.68818264177122   -1.96397e-05   5.44087e-06 DIIS
   @DF-RHF iter   8:  -455.68818580485248   -3.16308e-06   1.43673e-06 DIIS
   @DF-RHF iter   9:  -455.68818603821109   -2.33359e-07   3.01153e-07 DIIS
   @DF-RHF iter  10:  -455.68818604585158   -7.64049e-09   7.94205e-08 DIIS
   @DF-RHF iter  11:  -455.68818604625733   -4.05748e-10   2.54627e-08 DIIS
   @DF-RHF iter  12:  -455.68818604630201   -4.46789e-11   6.03958e-09 DIIS
   @DF-RHF iter  13:  -455.68818604630474   -2.72848e-12   1.33496e-09 DIIS
   @DF-RHF iter  14:  -455.68818604630525   -5.11591e-13   6.17409e-10 DIIS
   @DF-RHF iter  15:  -455.68818604630513    1.13687e-13   2.05749e-10 DIIS
   @DF-RHF iter  16:  -455.68818604630474    3.97904e-13   5.78424e-11 DIIS
  Energy and wave function converged.


  ==> Post-Iterations <==

    Orbital Energies [Eh]
    ---------------------

    Doubly Occupied:                                                      

       1A    -20.631570     2A    -20.631098     3A    -20.554625  
       4A    -20.554327     5A    -11.397923     6A    -11.397651  
       7A    -11.252654     8A    -11.252570     9A     -1.477848  
      10A     -1.477441    11A     -1.359362    12A     -1.359027  
      13A     -1.034749    14A     -1.034594    15A     -0.839892  
      16A     -0.839543    17A     -0.704953    18A     -0.704619  
      19A     -0.690314    20A     -0.690058    21A     -0.659658  
      22A     -0.659339    23A     -0.578421    24A     -0.578134  
      25A     -0.571527    26A     -0.571308    27A     -0.563088  
      28A     -0.562995    29A     -0.477211    30A     -0.476872  
      31A     -0.454236    32A     -0.453960  

    Virtual:                                                              

      33A      0.024245    34A      0.037342    35A      0.042271  
      36A      0.046052    37A      0.052672    38A      0.059723  
      39A      0.066051    40A      0.079335    41A      0.095730  
      42A      0.098004    43A      0.110547    44A      0.114878  
      45A      0.120896    46A      0.127128    47A      0.139274  
      48A      0.145969    49A      0.148624    50A      0.152251  
      51A      0.160441    52A      0.162254    53A      0.165274  
      54A      0.166725    55A      0.173111    56A      0.187472  
      57A      0.196097    58A      0.201950    59A      0.205307  
      60A      0.211957    61A      0.230550    62A      0.234164  
      63A      0.242431    64A      0.245898    65A      0.269536  
      66A      0.270656    67A      0.289530    68A      0.294074  
      69A      0.296281    70A      0.301271    71A      0.318030  
      72A      0.318709    73A      0.322261    74A      0.328367  
      75A      0.348226    76A      0.350071    77A      0.369587  
      78A      0.370162    79A      0.375179    80A      0.382311  
      81A      0.391258    82A      0.396045    83A      0.402993  
      84A      0.407531    85A      0.428487    86A      0.431164  
      87A      0.436130    88A      0.441444    89A      0.447219  
      90A      0.453877    91A      0.475413    92A      0.480854  
      93A      0.490752    94A      0.498288    95A      0.523238  
      96A      0.525555    97A      0.535069    98A      0.537950  
      99A      0.552595   100A      0.558429   101A      0.568538  
     102A      0.570250   103A      0.583138   104A      0.585186  
     105A      0.600928   106A      0.607687   107A      0.618438  
     108A      0.618662   109A      0.638697   110A      0.640758  
     111A      0.647566   112A      0.649424   113A      0.662694  
     114A      0.673577   115A      0.682496   116A      0.683544  
     117A      0.695103   118A      0.697046   119A      0.703345  
     120A      0.709305   121A      0.733077   122A      0.736973  
     123A      0.743766   124A      0.745682   125A      0.797820  
     126A      0.798142   127A      0.851985   128A      0.852747  
     129A      0.875398   130A      0.877097   131A      0.909746  
     132A      0.914640   133A      0.948573   134A      0.952018  
     135A      0.954524   136A      0.955429   137A      0.982145  
     138A      0.985567   139A      1.039343   140A      1.044856  
     141A      1.087175   142A      1.088644   143A      1.100192  
     144A      1.105078   145A      1.119396   146A      1.125361  
     147A      1.156403   148A      1.158172   149A      1.171967  
     150A      1.173860   151A      1.175177   152A      1.175507  
     153A      1.233726   154A      1.239688   155A      1.270711  
     156A      1.272434   157A      1.318013   158A      1.318440  
     159A      1.358593   160A      1.359458   161A      1.388991  
     162A      1.391473   163A      1.412418   164A      1.415355  
     165A      1.461569   166A      1.462421   167A      1.466591  
     168A      1.468793   169A      1.543886   170A      1.547123  
     171A      1.634366   172A      1.636558   173A      1.647057  
     174A      1.652273   175A      1.718407   176A      1.720637  
     177A      1.753775   178A      1.758719   179A      1.771242  
     180A      1.772457   181A      1.845830   182A      1.849165  
     183A      1.865198   184A      1.866142   185A      1.881959  
     186A      1.883326   187A      1.965263   188A      1.967633  
     189A      1.977393   190A      1.978461   191A      2.024865  
     192A      2.031348   193A      2.035959   194A      2.037195  
     195A      2.121488   196A      2.122596   197A      2.170456  
     198A      2.171322   199A      2.191938   200A      2.192809  
     201A      2.243701   202A      2.244581   203A      2.251219  
     204A      2.254350   205A      2.270827   206A      2.271243  
     207A      2.309981   208A      2.311899   209A      2.378566  
     210A      2.379343   211A      2.428878   212A      2.429258  
     213A      2.436628   214A      2.438596   215A      2.534802  
     216A      2.535201   217A      2.621684   218A      2.622379  
     219A      2.650679   220A      2.650756   221A      2.783392  
     222A      2.787361   223A      2.832598   224A      2.836016  
     225A      2.885008   226A      2.891110   227A      2.973329  
     228A      2.974467   229A      3.000192   230A      3.001583  
     231A      3.014948   232A      3.018061   233A      3.177322  
     234A      3.183532   235A      3.346919   236A      3.351725  
     237A      3.665762   238A      3.667076   239A      3.688511  
     240A      3.688987   241A      3.734428   242A      3.735583  
     243A      3.758556   244A      3.759569   245A      3.788711  
     246A      3.789258   247A      3.804192   248A      3.805111  
     249A      3.899021   250A      3.900027   251A      4.049368  
     252A      4.049713   253A      4.140989   254A      4.142696  
     255A      4.308316   256A      4.309743  

    Final Occupation by Irrep:
              A 
    DOCC [    32 ]

  @DF-RHF Final Energy:  -455.68818604630474

   => Energetics <=

    Nuclear Repulsion Energy =            309.7111937390144476
    One-Electron Energy =               -1237.8156205737905111
    Two-Electron Energy =                 472.4162407884713275
    Total Energy =                       -455.6881860463047360

Computation Completed


Properties will be evaluated at   0.000000,   0.000000,   0.000000 [a0]

Properties computed using the SCF density matrix

  Nuclear Dipole Moment: [e a0]
     X:    53.1220      Y:  -242.3867      Z:   -49.0983

  Electronic Dipole Moment: [e a0]
     X:   -53.1204      Y:   242.3904      Z:    48.9331

  Dipole Moment: [e a0]
     X:     0.0016      Y:     0.0036      Z:    -0.1653     Total:     0.1653

  Dipole Moment: [D]
     X:     0.0040      Y:     0.0092      Z:    -0.4200     Total:     0.4202


*** tstop() called on ds1 at Wed Sep  1 13:59:06 2021
Module time:
	user time   =      19.20 seconds =       0.32 minutes
	system time =       0.42 seconds =       0.01 minutes
	total time  =          4 seconds =       0.07 minutes
Total time:
	user time   =      19.20 seconds =       0.32 minutes
	system time =       0.42 seconds =       0.01 minutes
	total time  =          4 seconds =       0.07 minutes

  //>>>>>>>>>>>>>>>>>>>>>>>>>>>>>>>>>>>//
  //            Monomer A HF           //
  //<<<<<<<<<<<<<<<<<<<<<<<<<<<<<<<<<<<//


*** tstart() called on ds1
*** at Wed Sep  1 13:59:06 2021

   => Loading Basis Set <=

    Name: AUG-CC-PVDZ
    Role: ORBITAL
    Keyword: BASIS
    atoms 1-2, 9-10  entry O          line   254 file /theoryfs2/ds/csargent/miniconda3/envs/cle/share/psi4/basis/aug-cc-pvdz.gbs 
    atoms 3-6, 11-14 entry H          line    40 file /theoryfs2/ds/csargent/miniconda3/envs/cle/share/psi4/basis/aug-cc-pvdz.gbs 
    atoms 7-8, 15-16 entry C          line   182 file /theoryfs2/ds/csargent/miniconda3/envs/cle/share/psi4/basis/aug-cc-pvdz.gbs 


         ---------------------------------------------------------
                                   SCF
               by Justin Turney, Rob Parrish, Andy Simmonett
                          and Daniel G. A. Smith
                              RHF Reference
                        6 Threads,   6675 MiB Core
         ---------------------------------------------------------

  ==> Geometry <==

    Molecular point group: c1
    Full point group: C1

    Geometry (in Bohr), charge = 0, multiplicity = 1:

       Center              X                  Y                   Z               Mass       
    ------------   -----------------  -----------------  -----------------  -----------------
         O           -5.531022370000     2.939402900000     1.977626240000    15.994914619570
         O           -2.407088860000     0.908177340000     0.049059090000    15.994914619570
         H           -0.503048870000     1.375792050000     4.638809080000     1.007825032230
         H            0.000000000000     4.251042850000     3.090722380000     1.007825032230
         H           -2.389482150000     4.019167790000     5.401950410000     1.007825032230
         H           -3.747714110000     0.471479300000    -1.215575120000     1.007825032230
         C           -1.418597820000     2.985005000000     3.844051900000    12.000000000000
         C           -3.322637810000     2.286288140000     1.912214130000    12.000000000000
      Gh(O)           7.191083650000   -10.513988350000    -3.473383250000    15.994914619570
      Gh(O)           4.067150150000    -8.482762790000    -5.401950410000    15.994914619570
      Gh(H)           2.163110160000    -8.950377500000    -0.812200410000     1.007825032230
      Gh(H)           1.660061280000   -11.825628300000    -2.360287110000     1.007825032230
      Gh(H)           4.049543440000   -11.593753240000    -0.049059090000     1.007825032230
      Gh(H)           5.407775400000    -8.046064750000    -6.666584610000     1.007825032230
      Gh(C)           3.078659110000   -10.559590450000    -1.606957600000    12.000000000000
      Gh(C)           4.982699100000    -9.860873590000    -3.538795360000    12.000000000000

  Running in c1 symmetry.

  Rotational constants: A =      0.08676  B =      0.00645  C =      0.00635 [cm^-1]
  Rotational constants: A =   2600.94806  B =    193.29896  C =    190.27091 [MHz]
  Nuclear repulsion =  121.748430210971620

  Charge       = 0
  Multiplicity = 1
  Electrons    = 32
  Nalpha       = 16
  Nbeta        = 16

  ==> Algorithm <==

  SCF Algorithm Type is DF.
  DIIS enabled.
  MOM disabled.
  Fractional occupation disabled.
  Guess Type is SAD.
  Energy threshold   = 1.00e-10
  Density threshold  = 1.00e-10
  Integral threshold = 1.00e-12

  ==> Primary Basis <==

  Basis Set: AUG-CC-PVDZ
    Blend: AUG-CC-PVDZ
    Number of shells: 112
    Number of basis functions: 256
    Number of Cartesian functions: 272
    Spherical Harmonics?: true
    Max angular momentum: 2

   => Loading Basis Set <=

    Name: (AUG-CC-PVDZ AUX)
    Role: JKFIT
    Keyword: DF_BASIS_SCF
    atoms 1-2, 9-10  entry O          line   270 file /theoryfs2/ds/csargent/miniconda3/envs/cle/share/psi4/basis/aug-cc-pvdz-jkfit.gbs 
    atoms 3-6, 11-14 entry H          line    70 file /theoryfs2/ds/csargent/miniconda3/envs/cle/share/psi4/basis/aug-cc-pvdz-jkfit.gbs 
    atoms 7-8, 15-16 entry C          line   154 file /theoryfs2/ds/csargent/miniconda3/envs/cle/share/psi4/basis/aug-cc-pvdz-jkfit.gbs 

  ==> Integral Setup <==

  ==> DiskDFJK: Density-Fitted J/K Matrices <==

    J tasked:                  Yes
    K tasked:                  Yes
    wK tasked:                  No
    OpenMP threads:              6
    Integrals threads:           6
    Memory [MiB]:             5006
    Algorithm:                Core
    Integral Cache:           LOAD
    Schwarz Cutoff:          1E-12
    Fitting Condition:       1E-10

   => Auxiliary Basis Set <=

  Basis Set: (AUG-CC-PVDZ AUX)
    Blend: AUG-CC-PVDZ-JKFIT
    Number of shells: 320
    Number of basis functions: 944
    Number of Cartesian functions: 1088
    Spherical Harmonics?: true
    Max angular momentum: 3

  Minimum eigenvalue in the overlap matrix is 9.5279236686E-05.
  Reciprocal condition number of the overlap matrix is 8.8927762320E-06.
    Using symmetric orthogonalization.

  ==> Pre-Iterations <==

  SCF Guess: Superposition of Atomic Densities via on-the-fly atomic UHF (no occupation information).

   -------------------------
    Irrep   Nso     Nmo    
   -------------------------
     A        256     256 
   -------------------------
    Total     256     256
   -------------------------

  ==> Iterations <==

                           Total Energy        Delta E     RMS |[F,P]|

   @DF-RHF iter SAD:  -226.98992953258139   -2.26990e+02   0.00000e+00 
   @DF-RHF iter   1:  -227.68093369423607   -6.91004e-01   2.28212e-03 DIIS
   @DF-RHF iter   2:  -227.80093438841061   -1.20001e-01   1.32477e-03 DIIS
   @DF-RHF iter   3:  -227.84133768303226   -4.04033e-02   2.33583e-04 DIIS
   @DF-RHF iter   4:  -227.84357411404909   -2.23643e-03   1.03339e-04 DIIS
   @DF-RHF iter   5:  -227.84405500695181   -4.80893e-04   2.42120e-05 DIIS
   @DF-RHF iter   6:  -227.84409217036637   -3.71634e-05   1.17787e-05 DIIS
   @DF-RHF iter   7:  -227.84410195632356   -9.78596e-06   3.84243e-06 DIIS
   @DF-RHF iter   8:  -227.84410353768237   -1.58136e-06   1.01570e-06 DIIS
   @DF-RHF iter   9:  -227.84410365432348   -1.16641e-07   2.12923e-07 DIIS
   @DF-RHF iter  10:  -227.84410365814324   -3.81976e-09   5.61432e-08 DIIS
   @DF-RHF iter  11:  -227.84410365834708   -2.03841e-10   1.80112e-08 DIIS
   @DF-RHF iter  12:  -227.84410365836908   -2.19984e-11   4.26425e-09 DIIS
   @DF-RHF iter  13:  -227.84410365837005   -9.66338e-13   8.93480e-10 DIIS
   @DF-RHF iter  14:  -227.84410365837024   -1.98952e-13   2.86568e-10 DIIS
   @DF-RHF iter  15:  -227.84410365837010    1.42109e-13   1.08007e-10 DIIS
   @DF-RHF iter  16:  -227.84410365837007    2.84217e-14   2.85864e-11 DIIS
  Energy and wave function converged.


  ==> Post-Iterations <==

    Orbital Energies [Eh]
    ---------------------

    Doubly Occupied:                                                      

       1A    -20.629490     2A    -20.552803     3A    -11.396102  
       4A    -11.250979     5A     -1.475850     6A     -1.357485  
       7A     -1.032999     8A     -0.837928     9A     -0.703064  
      10A     -0.688464    11A     -0.657747    12A     -0.576536  
      13A     -0.569697    14A     -0.561402    15A     -0.475346  
      16A     -0.452432  

    Virtual:                                                              

      17A      0.020622    18A      0.035674    19A      0.041664  
      20A      0.047134    21A      0.053834    22A      0.057363  
      23A      0.063353    24A      0.075596    25A      0.083661  
      26A      0.096623    27A      0.105390    28A      0.110574  
      29A      0.115869    30A      0.119917    31A      0.130928  
      32A      0.138383    33A      0.140854    34A      0.145149  
      35A      0.150668    36A      0.161331    37A      0.164795  
      38A      0.171869    39A      0.175780    40A      0.177274  
      41A      0.198007    42A      0.207201    43A      0.211071  
      44A      0.215283    45A      0.223770    46A      0.235220  
      47A      0.239359    48A      0.258354    49A      0.261598  
      50A      0.265001    51A      0.272571    52A      0.278482  
      53A      0.289338    54A      0.298382    55A      0.301507  
      56A      0.323174    57A      0.326537    58A      0.332112  
      59A      0.336451    60A      0.351511    61A      0.369565  
      62A      0.373617    63A      0.379199    64A      0.394791  
      65A      0.399607    66A      0.403468    67A      0.412688  
      68A      0.429931    69A      0.430699    70A      0.441637  
      71A      0.448475    72A      0.454298    73A      0.459935  
      74A      0.477350    75A      0.490602    76A      0.494212  
      77A      0.503201    78A      0.516764    79A      0.528870  
      80A      0.537408    81A      0.541824    82A      0.542935  
      83A      0.556205    84A      0.560301    85A      0.571867  
      86A      0.584341    87A      0.586087    88A      0.604793  
      89A      0.616614    90A      0.621264    91A      0.636361  
      92A      0.638092    93A      0.645920    94A      0.651113  
      95A      0.666911    96A      0.682040    97A      0.684891  
      98A      0.690172    99A      0.696910   100A      0.701593  
     101A      0.707816   102A      0.726674   103A      0.736607  
     104A      0.745914   105A      0.754954   106A      0.761856  
     107A      0.786297   108A      0.798304   109A      0.816839  
     110A      0.820637   111A      0.849378   112A      0.854409  
     113A      0.878599   114A      0.889899   115A      0.898487  
     116A      0.915143   117A      0.945921   118A      0.951305  
     119A      0.956020   120A      0.959607   121A      0.978081  
     122A      0.987077   123A      1.037186   124A      1.042144  
     125A      1.045499   126A      1.089831   127A      1.102655  
     128A      1.107088   129A      1.126591   130A      1.158293  
     131A      1.165454   132A      1.176136   133A      1.176979  
     134A      1.189911   135A      1.237022   136A      1.260002  
     137A      1.270558   138A      1.273121   139A      1.319804  
     140A      1.328480   141A      1.360351   142A      1.382985  
     143A      1.391587   144A      1.395928   145A      1.414330  
     146A      1.433458   147A      1.454796   148A      1.465657  
     149A      1.466527   150A      1.468890   151A      1.472791  
     152A      1.542920   153A      1.547914   154A      1.568979  
     155A      1.638665   156A      1.651021   157A      1.683521  
     158A      1.716623   159A      1.721467   160A      1.757537  
     161A      1.773165   162A      1.799479   163A      1.848701  
     164A      1.867718   165A      1.882314   166A      1.885906  
     167A      1.936796   168A      1.969394   169A      1.979717  
     170A      2.027648   171A      2.037826   172A      2.070910  
     173A      2.123454   174A      2.172291   175A      2.193665  
     176A      2.245531   177A      2.249321   178A      2.255533  
     179A      2.263814   180A      2.272536   181A      2.273331  
     182A      2.301685   183A      2.312473   184A      2.337093  
     185A      2.339469   186A      2.361169   187A      2.376226  
     188A      2.381005   189A      2.430741   190A      2.439227  
     191A      2.466227   192A      2.506816   193A      2.536667  
     194A      2.585356   195A      2.623773   196A      2.652374  
     197A      2.663209   198A      2.703249   199A      2.753010  
     200A      2.785116   201A      2.789785   202A      2.826384  
     203A      2.836349   204A      2.889769   205A      2.914667  
     206A      2.975720   207A      3.002792   208A      3.018563  
     209A      3.042779   210A      3.179694   211A      3.181287  
     212A      3.278672   213A      3.312202   214A      3.348652  
     215A      3.357654   216A      3.431841   217A      3.489756  
     218A      3.663848   219A      3.673304   220A      3.690598  
     221A      3.736809   222A      3.739382   223A      3.761415  
     224A      3.790702   225A      3.807004   226A      3.901351  
     227A      4.026703   228A      4.051640   229A      4.143078  
     230A      4.154644   231A      4.310550   232A      4.504116  
     233A      4.621076   234A      4.724020   235A      4.924695  
     236A      4.968626   237A      4.977452   238A      5.000647  
     239A      5.016227   240A      5.032387   241A      5.051814  
     242A      5.221078   243A      5.242823   244A      5.613941  
     245A      5.663399   246A      5.790443   247A      5.869794  
     248A      6.054736   249A      6.227810   250A      6.519374  
     251A      6.789557   252A      7.091733   253A     18.346042  
     254A     18.946101   255A     33.524307   256A     33.562174  

    Final Occupation by Irrep:
              A 
    DOCC [    16 ]

  @DF-RHF Final Energy:  -227.84410365837007

   => Energetics <=

    Nuclear Repulsion Energy =            121.7484302109716197
    One-Electron Energy =                -552.7484222088083925
    Two-Electron Energy =                 203.1558883394667134
    Total Energy =                       -227.8441036583700736

Computation Completed


Properties will be evaluated at   0.000000,   0.000000,   0.000000 [a0]

Properties computed using the SCF density matrix

  Nuclear Dipole Moment: [e a0]
     X:   -98.5925      Y:    72.5259      Z:    62.6670

  Electronic Dipole Moment: [e a0]
     X:    99.4208      Y:   -72.8090      Z:   -62.7505

  Dipole Moment: [e a0]
     X:     0.8283      Y:    -0.2832      Z:    -0.0835     Total:     0.8793

  Dipole Moment: [D]
     X:     2.1053      Y:    -0.7197      Z:    -0.2122     Total:     2.2350


*** tstop() called on ds1 at Wed Sep  1 13:59:09 2021
Module time:
	user time   =      14.08 seconds =       0.23 minutes
	system time =       0.20 seconds =       0.00 minutes
	total time  =          3 seconds =       0.05 minutes
Total time:
	user time   =      33.46 seconds =       0.56 minutes
	system time =       0.63 seconds =       0.01 minutes
	total time  =          7 seconds =       0.12 minutes

  //>>>>>>>>>>>>>>>>>>>>>>>>>>>>>>>>>>>//
  //            Monomer B HF           //
  //<<<<<<<<<<<<<<<<<<<<<<<<<<<<<<<<<<<//


*** tstart() called on ds1
*** at Wed Sep  1 13:59:09 2021

   => Loading Basis Set <=

    Name: AUG-CC-PVDZ
    Role: ORBITAL
    Keyword: BASIS
    atoms 1-2, 9-10  entry O          line   254 file /theoryfs2/ds/csargent/miniconda3/envs/cle/share/psi4/basis/aug-cc-pvdz.gbs 
    atoms 3-6, 11-14 entry H          line    40 file /theoryfs2/ds/csargent/miniconda3/envs/cle/share/psi4/basis/aug-cc-pvdz.gbs 
    atoms 7-8, 15-16 entry C          line   182 file /theoryfs2/ds/csargent/miniconda3/envs/cle/share/psi4/basis/aug-cc-pvdz.gbs 


         ---------------------------------------------------------
                                   SCF
               by Justin Turney, Rob Parrish, Andy Simmonett
                          and Daniel G. A. Smith
                              RHF Reference
                        6 Threads,   6675 MiB Core
         ---------------------------------------------------------

  ==> Geometry <==

    Molecular point group: c1
    Full point group: C1

    Geometry (in Bohr), charge = 0, multiplicity = 1:

       Center              X                  Y                   Z               Mass       
    ------------   -----------------  -----------------  -----------------  -----------------
      Gh(O)          -5.531022370000     2.939402900000     1.977626240000    15.994914619570
      Gh(O)          -2.407088860000     0.908177340000     0.049059090000    15.994914619570
      Gh(H)          -0.503048870000     1.375792050000     4.638809080000     1.007825032230
      Gh(H)           0.000000000000     4.251042850000     3.090722380000     1.007825032230
      Gh(H)          -2.389482150000     4.019167790000     5.401950410000     1.007825032230
      Gh(H)          -3.747714110000     0.471479300000    -1.215575120000     1.007825032230
      Gh(C)          -1.418597820000     2.985005000000     3.844051900000    12.000000000000
      Gh(C)          -3.322637810000     2.286288140000     1.912214130000    12.000000000000
         O            7.191083650000   -10.513988350000    -3.473383250000    15.994914619570
         O            4.067150150000    -8.482762790000    -5.401950410000    15.994914619570
         H            2.163110160000    -8.950377500000    -0.812200410000     1.007825032230
         H            1.660061280000   -11.825628300000    -2.360287110000     1.007825032230
         H            4.049543440000   -11.593753240000    -0.049059090000     1.007825032230
         H            5.407775400000    -8.046064750000    -6.666584610000     1.007825032230
         C            3.078659110000   -10.559590450000    -1.606957600000    12.000000000000
         C            4.982699100000    -9.860873590000    -3.538795360000    12.000000000000

  Running in c1 symmetry.

  Rotational constants: A =      0.08676  B =      0.00645  C =      0.00635 [cm^-1]
  Rotational constants: A =   2600.94806  B =    193.29896  C =    190.27091 [MHz]
  Nuclear repulsion =  121.748430321288183

  Charge       = 0
  Multiplicity = 1
  Electrons    = 32
  Nalpha       = 16
  Nbeta        = 16

  ==> Algorithm <==

  SCF Algorithm Type is DF.
  DIIS enabled.
  MOM disabled.
  Fractional occupation disabled.
  Guess Type is SAD.
  Energy threshold   = 1.00e-10
  Density threshold  = 1.00e-10
  Integral threshold = 1.00e-12

  ==> Primary Basis <==

  Basis Set: AUG-CC-PVDZ
    Blend: AUG-CC-PVDZ
    Number of shells: 112
    Number of basis functions: 256
    Number of Cartesian functions: 272
    Spherical Harmonics?: true
    Max angular momentum: 2

   => Loading Basis Set <=

    Name: (AUG-CC-PVDZ AUX)
    Role: JKFIT
    Keyword: DF_BASIS_SCF
    atoms 1-2, 9-10  entry O          line   270 file /theoryfs2/ds/csargent/miniconda3/envs/cle/share/psi4/basis/aug-cc-pvdz-jkfit.gbs 
    atoms 3-6, 11-14 entry H          line    70 file /theoryfs2/ds/csargent/miniconda3/envs/cle/share/psi4/basis/aug-cc-pvdz-jkfit.gbs 
    atoms 7-8, 15-16 entry C          line   154 file /theoryfs2/ds/csargent/miniconda3/envs/cle/share/psi4/basis/aug-cc-pvdz-jkfit.gbs 

  ==> Integral Setup <==

  ==> DiskDFJK: Density-Fitted J/K Matrices <==

    J tasked:                  Yes
    K tasked:                  Yes
    wK tasked:                  No
    OpenMP threads:              6
    Integrals threads:           6
    Memory [MiB]:             5006
    Algorithm:                Core
    Integral Cache:           LOAD
    Schwarz Cutoff:          1E-12
    Fitting Condition:       1E-10

   => Auxiliary Basis Set <=

  Basis Set: (AUG-CC-PVDZ AUX)
    Blend: AUG-CC-PVDZ-JKFIT
    Number of shells: 320
    Number of basis functions: 944
    Number of Cartesian functions: 1088
    Spherical Harmonics?: true
    Max angular momentum: 3

  Minimum eigenvalue in the overlap matrix is 9.5279236686E-05.
  Reciprocal condition number of the overlap matrix is 8.8927762320E-06.
    Using symmetric orthogonalization.

  ==> Pre-Iterations <==

  SCF Guess: Superposition of Atomic Densities via on-the-fly atomic UHF (no occupation information).

   -------------------------
    Irrep   Nso     Nmo    
   -------------------------
     A        256     256 
   -------------------------
    Total     256     256
   -------------------------

  ==> Iterations <==

                           Total Energy        Delta E     RMS |[F,P]|

   @DF-RHF iter SAD:  -226.98992950246350   -2.26990e+02   0.00000e+00 
   @DF-RHF iter   1:  -227.68092023606857   -6.90991e-01   2.28216e-03 DIIS
   @DF-RHF iter   2:  -227.80092374887408   -1.20004e-01   1.32480e-03 DIIS
   @DF-RHF iter   3:  -227.84132908629829   -4.04053e-02   2.33584e-04 DIIS
   @DF-RHF iter   4:  -227.84356553003443   -2.23644e-03   1.03341e-04 DIIS
   @DF-RHF iter   5:  -227.84404644143441   -4.80911e-04   2.42132e-05 DIIS
   @DF-RHF iter   6:  -227.84408360819776   -3.71668e-05   1.17796e-05 DIIS
   @DF-RHF iter   7:  -227.84409339591335   -9.78772e-06   3.84276e-06 DIIS
   @DF-RHF iter   8:  -227.84409497757190   -1.58166e-06   1.01577e-06 DIIS
   @DF-RHF iter   9:  -227.84409509422730   -1.16655e-07   2.12951e-07 DIIS
   @DF-RHF iter  10:  -227.84409509804843   -3.82113e-09   5.61560e-08 DIIS
   @DF-RHF iter  11:  -227.84409509825173   -2.03300e-10   1.80142e-08 DIIS
   @DF-RHF iter  12:  -227.84409509827410   -2.23679e-11   4.26482e-09 DIIS
   @DF-RHF iter  13:  -227.84409509827495   -8.52651e-13   8.93504e-10 DIIS
   @DF-RHF iter  14:  -227.84409509827549   -5.40012e-13   2.86641e-10 DIIS
   @DF-RHF iter  15:  -227.84409509827498    5.11591e-13   1.07980e-10 DIIS
   @DF-RHF iter  16:  -227.84409509827515   -1.70530e-13   2.85234e-11 DIIS
  Energy and wave function converged.


  ==> Post-Iterations <==

    Orbital Energies [Eh]
    ---------------------

    Doubly Occupied:                                                      

       1A    -20.629478     2A    -20.552804     3A    -11.396107  
       4A    -11.250973     5A     -1.475852     6A     -1.357486  
       7A     -1.032999     8A     -0.837929     9A     -0.703065  
      10A     -0.688465    11A     -0.657749    12A     -0.576537  
      13A     -0.569698    14A     -0.561403    15A     -0.475345  
      16A     -0.452433  

    Virtual:                                                              

      17A      0.020644    18A      0.034117    19A      0.043576  
      20A      0.047457    21A      0.051584    22A      0.055570  
      23A      0.064704    24A      0.080069    25A      0.085948  
      26A      0.098446    27A      0.102762    28A      0.109188  
      29A      0.117571    30A      0.118148    31A      0.123973  
      32A      0.138119    33A      0.140998    34A      0.145787  
      35A      0.153357    36A      0.158456    37A      0.161763  
      38A      0.167783    39A      0.176574    40A      0.188575  
      41A      0.196253    42A      0.205769    43A      0.213516  
      44A      0.225247    45A      0.226797    46A      0.235127  
      47A      0.240593    48A      0.248894    49A      0.259139  
      50A      0.263206    51A      0.272318    52A      0.278401  
      53A      0.287936    54A      0.297198    55A      0.301955  
      56A      0.320360    57A      0.325275    58A      0.332994  
      59A      0.334919    60A      0.350156    61A      0.369692  
      62A      0.372700    63A      0.381365    64A      0.395078  
      65A      0.400491    66A      0.406408    67A      0.413399  
      68A      0.430287    69A      0.431948    70A      0.438395  
      71A      0.445325    72A      0.446640    73A      0.462650  
      74A      0.476546    75A      0.490415    76A      0.495517  
      77A      0.509652    78A      0.516941    79A      0.529380  
      80A      0.538883    81A      0.541812    82A      0.544416  
      83A      0.552916    84A      0.562809    85A      0.572117  
      86A      0.584903    87A      0.591109    88A      0.602747  
      89A      0.616002    90A      0.620232    91A      0.636331  
      92A      0.639024    93A      0.641610    94A      0.650769  
      95A      0.673449    96A      0.676514    97A      0.684470  
      98A      0.690932    99A      0.697804   100A      0.699613  
     101A      0.710775   102A      0.727140   103A      0.735050  
     104A      0.745210   105A      0.755310   106A      0.760443  
     107A      0.786127   108A      0.799487   109A      0.814906  
     110A      0.820010   111A      0.848665   112A      0.854550  
     113A      0.877684   114A      0.888347   115A      0.899655  
     116A      0.913791   117A      0.946105   118A      0.954514  
     119A      0.955233   120A      0.958111   121A      0.975286  
     122A      0.984759   123A      1.034634   124A      1.043527  
     125A      1.047224   126A      1.089093   127A      1.104218  
     128A      1.108869   129A      1.122046   130A      1.158751  
     131A      1.163085   132A      1.173514   133A      1.176922  
     134A      1.189505   135A      1.239495   136A      1.259915  
     137A      1.270993   138A      1.275065   139A      1.319679  
     140A      1.329832   141A      1.360934   142A      1.382486  
     143A      1.392372   144A      1.394896   145A      1.415748  
     146A      1.433705   147A      1.461274   148A      1.465801  
     149A      1.466082   150A      1.468060   151A      1.468455  
     152A      1.538769   153A      1.547346   154A      1.572403  
     155A      1.636060   156A      1.651894   157A      1.684661  
     158A      1.717157   159A      1.721669   160A      1.758544  
     161A      1.773470   162A      1.799647   163A      1.849737  
     164A      1.866865   165A      1.882660   166A      1.884228  
     167A      1.936256   168A      1.967161   169A      1.979635  
     170A      2.031534   171A      2.038679   172A      2.070406  
     173A      2.124097   174A      2.172870   175A      2.194304  
     176A      2.245399   177A      2.250138   178A      2.254143  
     179A      2.263943   180A      2.272092   181A      2.273467  
     182A      2.301551   183A      2.312779   184A      2.337074  
     185A      2.337756   186A      2.361007   187A      2.375650  
     188A      2.380984   189A      2.430878   190A      2.439189  
     191A      2.468043   192A      2.504066   193A      2.536838  
     194A      2.585073   195A      2.623725   196A      2.652344  
     197A      2.662836   198A      2.699561   199A      2.753403  
     200A      2.784797   201A      2.785672   202A      2.826467  
     203A      2.836405   204A      2.888976   205A      2.914804  
     206A      2.975461   207A      3.002496   208A      3.017230  
     209A      3.042193   210A      3.180573   211A      3.184818  
     212A      3.277760   213A      3.313273   214A      3.351809  
     215A      3.359462   216A      3.430900   217A      3.485687  
     218A      3.664648   219A      3.670086   220A      3.690619  
     221A      3.736920   222A      3.740235   223A      3.760629  
     224A      3.790679   225A      3.805754   226A      3.901187  
     227A      4.026379   228A      4.050930   229A      4.143819  
     230A      4.154244   231A      4.311149   232A      4.504475  
     233A      4.616225   234A      4.723631   235A      4.924599  
     236A      4.968124   237A      4.978532   238A      5.000271  
     239A      5.015556   240A      5.032155   241A      5.051100  
     242A      5.221025   243A      5.242869   244A      5.613405  
     245A      5.660504   246A      5.791670   247A      5.870335  
     248A      6.054536   249A      6.227806   250A      6.519267  
     251A      6.789248   252A      7.091390   253A     18.345115  
     254A     18.946011   255A     33.524012   256A     33.561547  

    Final Occupation by Irrep:
              A 
    DOCC [    16 ]

  @DF-RHF Final Energy:  -227.84409509827515

   => Energetics <=

    Nuclear Repulsion Energy =            121.7484303212881827
    One-Electron Energy =                -552.7484058991137772
    Two-Electron Energy =                 203.1558804795504329
    Total Energy =                       -227.8440950982751474

Computation Completed


Properties will be evaluated at   0.000000,   0.000000,   0.000000 [a0]

Properties computed using the SCF density matrix

  Nuclear Dipole Moment: [e a0]
     X:   151.7145      Y:  -314.9126      Z:  -111.7653

  Electronic Dipole Moment: [e a0]
     X:  -152.5425      Y:   315.1955      Z:   111.6820

  Dipole Moment: [e a0]
     X:    -0.8280      Y:     0.2829      Z:    -0.0833     Total:     0.8790

  Dipole Moment: [D]
     X:    -2.1046      Y:     0.7191      Z:    -0.2118     Total:     2.2341


*** tstop() called on ds1 at Wed Sep  1 13:59:12 2021
Module time:
	user time   =      13.92 seconds =       0.23 minutes
	system time =       0.19 seconds =       0.00 minutes
	total time  =          3 seconds =       0.05 minutes
Total time:
	user time   =      47.64 seconds =       0.79 minutes
	system time =       0.82 seconds =       0.01 minutes
	total time  =         10 seconds =       0.17 minutes
  Constructing Basis Sets for SAPT...

   => Loading Basis Set <=

    Name: (AUG-CC-PVDZ AUX)
    Role: RIFIT
    Keyword: DF_BASIS_SAPT
    atoms 1-2, 9-10  entry O          line   204 file /theoryfs2/ds/csargent/miniconda3/envs/cle/share/psi4/basis/aug-cc-pvdz-ri.gbs 
    atoms 3-6, 11-14 entry H          line    30 file /theoryfs2/ds/csargent/miniconda3/envs/cle/share/psi4/basis/aug-cc-pvdz-ri.gbs 
    atoms 7-8, 15-16 entry C          line   112 file /theoryfs2/ds/csargent/miniconda3/envs/cle/share/psi4/basis/aug-cc-pvdz-ri.gbs 


  //>>>>>>>>>>>>>>>>>>>>>>>>>>>>>>>>>>>//
  //               SAPT0               //
  //<<<<<<<<<<<<<<<<<<<<<<<<<<<<<<<<<<<//


*** tstart() called on ds1
*** at Wed Sep  1 13:59:12 2021

        SAPT0  
    Ed Hohenstein
     6 June 2009

      Orbital Information
  --------------------------
    NSO        =       256
    NMO        =       256
    NRI        =       760
    NOCC A     =        16
    NOCC B     =        16
    FOCC A     =         4
    FOCC B     =         4
    NVIR A     =       240
    NVIR B     =       240

    Elst10,r            =     0.000013843797 [Eh]
    Exch10              =     0.000000019251 [Eh]
    Exch10 (S^2)        =     0.000000019250 [Eh]

    Iter     Energy [mEh]          dE [mEh]         Residual      Time [s]
       1      -0.00083936       0.000839357       0.250473072             0
       2      -0.00084355       0.000004198       0.093946293             0
       3      -0.00091146       0.000067909       0.035361840             0
       4      -0.00092881       0.000017350       0.007416632             0
       5      -0.00092593      -0.000002885       0.004070483             0
       6      -0.00092504      -0.000000887       0.001274122             0
       7      -0.00092539       0.000000347       0.000394710             0
       8      -0.00092544       0.000000054       0.000101016             0
       9      -0.00092543      -0.000000016       0.000031073             0
      10      -0.00092542      -0.000000005       0.000007327             0
      11      -0.00092542       0.000000002       0.000001656             1
      12      -0.00092542      -0.000000000       0.000000559             1

    CHF Iterations converged


    Iter     Energy [mEh]          dE [mEh]         Residual      Time [s]
       1      -0.00022580       0.000225801       0.142427725             0
       2      -0.00022266      -0.000003141       0.046708727             0
       3      -0.00024194       0.000019281       0.017219212             0
       4      -0.00024594       0.000004002       0.004656009             0
       5      -0.00024519      -0.000000757       0.002762306             0
       6      -0.00024481      -0.000000374       0.000733245             0
       7      -0.00024492       0.000000103       0.000203399             0
       8      -0.00024494       0.000000022       0.000047998             0
       9      -0.00024493      -0.000000004       0.000016329             0
      10      -0.00024493      -0.000000002       0.000006612             0
      11      -0.00024493       0.000000001       0.000002099             0
      12      -0.00024493      -0.000000000       0.000000655             0

    CHF Iterations converged

    Ind20,r (A<-B)      =    -0.000000925424 [Eh]
    Ind20,r (B<-A)      =    -0.000000244933 [Eh]
    Ind20,r             =    -0.000001170356 [Eh]
    Exch-Ind20,r (A<-B) =     0.000000013984 [Eh]
    Exch-Ind20,r (B<-A) =     0.000000007067 [Eh]
    Exch-Ind20,r        =     0.000000021051 [Eh]
    Disp20              =    -0.000053825852 [Eh]
    Disp20 (SS)         =    -0.000026912926 [Eh]
    Disp20 (OS)         =    -0.000026912926 [Eh]
    Exch-Disp20         =     0.000000004870 [Eh]
    Exch-Disp20 (SS)    =     0.000000004000 [Eh]
    Exch-Disp20 (OS)    =     0.000000000871 [Eh]

    SAPT Results 
  --------------------------------------------------------------------------------------------------------
    Electrostatics                  0.01384380 [mEh]       0.00868711 [kcal/mol]       0.03634688 [kJ/mol]
      Elst10,r                      0.01384380 [mEh]       0.00868711 [kcal/mol]       0.03634688 [kJ/mol]

    Exchange                        0.00001925 [mEh]       0.00001208 [kcal/mol]       0.00005054 [kJ/mol]
      Exch10                        0.00001925 [mEh]       0.00001208 [kcal/mol]       0.00005054 [kJ/mol]
      Exch10(S^2)                   0.00001925 [mEh]       0.00001208 [kcal/mol]       0.00005054 [kJ/mol]

    Induction                      -0.00115271 [mEh]      -0.00072333 [kcal/mol]      -0.00302643 [kJ/mol]
      Ind20,r                      -0.00117036 [mEh]      -0.00073441 [kcal/mol]      -0.00307277 [kJ/mol]
      Exch-Ind20,r                  0.00002105 [mEh]       0.00001321 [kcal/mol]       0.00005527 [kJ/mol]
      delta HF,r (2)               -0.00000340 [mEh]      -0.00000213 [kcal/mol]      -0.00000893 [kJ/mol]

    Dispersion                     -0.05382098 [mEh]      -0.03377318 [kcal/mol]      -0.14130697 [kJ/mol]
      Disp20                       -0.05382585 [mEh]      -0.03377623 [kcal/mol]      -0.14131975 [kJ/mol]
      Exch-Disp20                   0.00000487 [mEh]       0.00000306 [kcal/mol]       0.00001279 [kJ/mol]
      Disp20 (SS)                  -0.02691293 [mEh]      -0.01688812 [kcal/mol]      -0.07065988 [kJ/mol]
      Disp20 (OS)                  -0.02691293 [mEh]      -0.01688812 [kcal/mol]      -0.07065988 [kJ/mol]
      Exch-Disp20 (SS)              0.00000400 [mEh]       0.00000251 [kcal/mol]       0.00001050 [kJ/mol]
      Exch-Disp20 (OS)              0.00000087 [mEh]       0.00000055 [kcal/mol]       0.00000229 [kJ/mol]

  Total HF                          0.01271034 [mEh]       0.00797586 [kcal/mol]       0.03337099 [kJ/mol]
  Total SAPT0                      -0.04111064 [mEh]      -0.02579732 [kcal/mol]      -0.10793597 [kJ/mol]

  Special recipe for scaled SAPT0 (see Manual):
    Electrostatics sSAPT0           0.01384380 [mEh]       0.00868711 [kcal/mol]       0.03634688 [kJ/mol]
    Exchange sSAPT0                 0.00001925 [mEh]       0.00001208 [kcal/mol]       0.00005054 [kJ/mol]
    Induction sSAPT0               -0.00115271 [mEh]      -0.00072333 [kcal/mol]      -0.00302643 [kJ/mol]
    Dispersion sSAPT0              -0.05382098 [mEh]      -0.03377318 [kcal/mol]      -0.14130697 [kJ/mol]
  Total sSAPT0                     -0.04111064 [mEh]      -0.02579732 [kcal/mol]      -0.10793597 [kJ/mol]
  --------------------------------------------------------------------------------------------------------

*** tstop() called on ds1 at Wed Sep  1 13:59:18 2021
Module time:
	user time   =      28.96 seconds =       0.48 minutes
	system time =       2.57 seconds =       0.04 minutes
	total time  =          6 seconds =       0.10 minutes
Total time:
	user time   =      77.30 seconds =       1.29 minutes
	system time =       3.42 seconds =       0.06 minutes
	total time  =         16 seconds =       0.27 minutes


Warning! sapt0 does not have an associated derived wavefunction.The returned wavefunction is the dimer SCF wavefunction.


    Psi4 stopped on: Wednesday, 01 September 2021 01:59PM
    Psi4 wall time for execution: 0:00:16.29

*** Psi4 exiting successfully. Buy a developer a beer!
