
    -----------------------------------------------------------------------
          Psi4: An Open-Source Ab Initio Electronic Structure Package
                               Psi4 1.4rc3 

                         Git: Rev {HEAD} 080dba6 


    D. G. A. Smith, L. A. Burns, A. C. Simmonett, R. M. Parrish,
    M. C. Schieber, R. Galvelis, P. Kraus, H. Kruse, R. Di Remigio,
    A. Alenaizan, A. M. James, S. Lehtola, J. P. Misiewicz, M. Scheurer,
    R. A. Shaw, J. B. Schriber, Y. Xie, Z. L. Glick, D. A. Sirianni,
    J. S. O'Brien, J. M. Waldrop, A. Kumar, E. G. Hohenstein,
    B. P. Pritchard, B. R. Brooks, H. F. Schaefer III, A. Yu. Sokolov,
    K. Patkowski, A. E. DePrince III, U. Bozkaya, R. A. King,
    F. A. Evangelista, J. M. Turney, T. D. Crawford, C. D. Sherrill,
    J. Chem. Phys. 152(18) 184108 (2020). https://doi.org/10.1063/5.0006002

                            Additional Code Authors
    E. T. Seidl, C. L. Janssen, E. F. Valeev, M. L. Leininger,
    J. F. Gonthier, R. M. Richard, H. R. McAlexander, M. Saitow, X. Wang,
    P. Verma, and M. H. Lechner

             Previous Authors, Complete List of Code Contributors,
                       and Citations for Specific Modules
    https://github.com/psi4/psi4/blob/master/codemeta.json
    https://github.com/psi4/psi4/graphs/contributors
    http://psicode.org/psi4manual/master/introduction.html#citing-psifour

    -----------------------------------------------------------------------


    Psi4 started on: Wednesday, 01 September 2021 01:11PM

    Process ID: 17714
    Host:       ds1
    PSIDATADIR: /theoryfs2/ds/csargent/miniconda3/envs/cle/share/psi4
    Memory:     500.0 MiB
    Threads:    6
    
  ==> Input File <==

--------------------------------------------------------------------------
# PSI4 file produced by CrystaLattE

# Generated from:               acetic_acid.xyz
# Psithon input for N-mer:      2mer-0+127
# Number of atoms per monomer:  [8, 8]
# Number of replicas:           2
# COM priority:                 4.213473370332e-05
# Minimum COM separations:      15.207 
# Separation priority:          9.058399774393e-05
# Minimum monomer separations:  11.783 
# Cutoff priority:              4.068197026012e-06
# Nuclear repulsion energy:     279.26062326306896

memory 7 GB

molecule Dimer_0_127 {
  O           -5.53102237       2.93940290       1.97762624 
  O           -2.40708886       0.90817734       0.04905909 
  H           -0.50304887       1.37579205       4.63880908 
  H            0.00000000       4.25104285       3.09072238 
  H           -2.38948215       4.01916779       5.40195041 
  H           -3.74771411       0.47147930      -1.21557512 
  C           -1.41859782       2.98500500       3.84405190 
  C           -3.32263781       2.28628814       1.91221413 
--
  O            7.19108365      -2.78481953     -25.27742123 
  O            4.06715015      -0.75359396     -27.20598839 
  H            2.16311016      -1.22120867     -22.61623840 
  H            1.66006128      -4.09645948     -24.16432509 
  H            4.04954344      -3.86458441     -21.85309707 
  H            5.40777540      -0.31689592     -28.47062259 
  C            3.07865911      -2.83042162     -23.41099558 
  C            4.98269910      -2.13170476     -25.34283335 
units = au
no_com
no_reorient
}

set {
  e_convergence 10
  d_convergence 10
  scf_type df
  mp2_type df
  cc_type df
  freeze_core true
}

energy('sapt0/aug-cc-pvdz')

--------------------------------------------------------------------------

  Memory set to   6.519 GiB by Python driver.

Scratch directory: /scratch/csargent/psi4.17562.33784/

Scratch directory: /scratch/csargent/psi4.17562.33784/

  //>>>>>>>>>>>>>>>>>>>>>>>>>>>>>>>>>>>//
  //              Dimer HF             //
  //<<<<<<<<<<<<<<<<<<<<<<<<<<<<<<<<<<<//


*** tstart() called on ds1
*** at Wed Sep  1 13:11:28 2021

   => Loading Basis Set <=

    Name: AUG-CC-PVDZ
    Role: ORBITAL
    Keyword: BASIS
    atoms 1-2, 9-10  entry O          line   254 file /theoryfs2/ds/csargent/miniconda3/envs/cle/share/psi4/basis/aug-cc-pvdz.gbs 
    atoms 3-6, 11-14 entry H          line    40 file /theoryfs2/ds/csargent/miniconda3/envs/cle/share/psi4/basis/aug-cc-pvdz.gbs 
    atoms 7-8, 15-16 entry C          line   182 file /theoryfs2/ds/csargent/miniconda3/envs/cle/share/psi4/basis/aug-cc-pvdz.gbs 


         ---------------------------------------------------------
                                   SCF
               by Justin Turney, Rob Parrish, Andy Simmonett
                          and Daniel G. A. Smith
                              RHF Reference
                        6 Threads,   6675 MiB Core
         ---------------------------------------------------------

  ==> Geometry <==

    Molecular point group: c1
    Full point group: C1

    Geometry (in Bohr), charge = 0, multiplicity = 1:

       Center              X                  Y                   Z               Mass       
    ------------   -----------------  -----------------  -----------------  -----------------
         O           -5.531022370000     2.939402900000     1.977626240000    15.994914619570
         O           -2.407088860000     0.908177340000     0.049059090000    15.994914619570
         H           -0.503048870000     1.375792050000     4.638809080000     1.007825032230
         H            0.000000000000     4.251042850000     3.090722380000     1.007825032230
         H           -2.389482150000     4.019167790000     5.401950410000     1.007825032230
         H           -3.747714110000     0.471479300000    -1.215575120000     1.007825032230
         C           -1.418597820000     2.985005000000     3.844051900000    12.000000000000
         C           -3.322637810000     2.286288140000     1.912214130000    12.000000000000
         O            7.191083650000    -2.784819530000   -25.277421230000    15.994914619570
         O            4.067150150000    -0.753593960000   -27.205988390000    15.994914619570
         H            2.163110160000    -1.221208670000   -22.616238400000     1.007825032230
         H            1.660061280000    -4.096459480000   -24.164325090000     1.007825032230
         H            4.049543440000    -3.864584410000   -21.853097070000     1.007825032230
         H            5.407775400000    -0.316895920000   -28.470622590000     1.007825032230
         C            3.078659110000    -2.830421620000   -23.410995580000    12.000000000000
         C            4.982699100000    -2.131704760000   -25.342833350000    12.000000000000

  Running in c1 symmetry.

  Rotational constants: A =      0.05395  B =      0.00146  C =      0.00144 [cm^-1]
  Rotational constants: A =   1617.48523  B =     43.91332  C =     43.02144 [MHz]
  Nuclear repulsion =  279.260623386867337

  Charge       = 0
  Multiplicity = 1
  Electrons    = 64
  Nalpha       = 32
  Nbeta        = 32

  ==> Algorithm <==

  SCF Algorithm Type is DF.
  DIIS enabled.
  MOM disabled.
  Fractional occupation disabled.
  Guess Type is SAD.
  Energy threshold   = 1.00e-10
  Density threshold  = 1.00e-10
  Integral threshold = 1.00e-12

  ==> Primary Basis <==

  Basis Set: AUG-CC-PVDZ
    Blend: AUG-CC-PVDZ
    Number of shells: 112
    Number of basis functions: 256
    Number of Cartesian functions: 272
    Spherical Harmonics?: true
    Max angular momentum: 2

   => Loading Basis Set <=

    Name: (AUG-CC-PVDZ AUX)
    Role: JKFIT
    Keyword: DF_BASIS_SCF
    atoms 1-2, 9-10  entry O          line   270 file /theoryfs2/ds/csargent/miniconda3/envs/cle/share/psi4/basis/aug-cc-pvdz-jkfit.gbs 
    atoms 3-6, 11-14 entry H          line    70 file /theoryfs2/ds/csargent/miniconda3/envs/cle/share/psi4/basis/aug-cc-pvdz-jkfit.gbs 
    atoms 7-8, 15-16 entry C          line   154 file /theoryfs2/ds/csargent/miniconda3/envs/cle/share/psi4/basis/aug-cc-pvdz-jkfit.gbs 

  ==> Integral Setup <==

  ==> DiskDFJK: Density-Fitted J/K Matrices <==

    J tasked:                  Yes
    K tasked:                  Yes
    wK tasked:                  No
    OpenMP threads:              6
    Integrals threads:           6
    Memory [MiB]:             5006
    Algorithm:                Core
    Integral Cache:           SAVE
    Schwarz Cutoff:          1E-12
    Fitting Condition:       1E-10

   => Auxiliary Basis Set <=

  Basis Set: (AUG-CC-PVDZ AUX)
    Blend: AUG-CC-PVDZ-JKFIT
    Number of shells: 320
    Number of basis functions: 944
    Number of Cartesian functions: 1088
    Spherical Harmonics?: true
    Max angular momentum: 3

  Minimum eigenvalue in the overlap matrix is 1.0274759169E-04.
  Reciprocal condition number of the overlap matrix is 9.6512511308E-06.
    Using symmetric orthogonalization.

  ==> Pre-Iterations <==

  SCF Guess: Superposition of Atomic Densities via on-the-fly atomic UHF (no occupation information).

   -------------------------
    Irrep   Nso     Nmo    
   -------------------------
     A        256     256 
   -------------------------
    Total     256     256
   -------------------------

  ==> Iterations <==

                           Total Energy        Delta E     RMS |[F,P]|

   @DF-RHF iter SAD:  -453.97985886996634   -4.53980e+02   0.00000e+00 
   @DF-RHF iter   1:  -455.36181804934256   -1.38196e+00   3.22740e-03 DIIS
   @DF-RHF iter   2:  -455.60183486115841   -2.40017e-01   1.87341e-03 DIIS
   @DF-RHF iter   3:  -455.68263645678496   -8.08016e-02   3.30251e-04 DIIS
   @DF-RHF iter   4:  -455.68710845642136   -4.47200e-03   1.46107e-04 DIIS
   @DF-RHF iter   5:  -455.68806988690523   -9.61430e-04   3.42341e-05 DIIS
   @DF-RHF iter   6:  -455.68814420785372   -7.43209e-05   1.66576e-05 DIIS
   @DF-RHF iter   7:  -455.68816377721282   -1.95694e-05   5.43317e-06 DIIS
   @DF-RHF iter   8:  -455.68816693941858   -3.16221e-06   1.43659e-06 DIIS
   @DF-RHF iter   9:  -455.68816717271494   -2.33296e-07   3.01423e-07 DIIS
   @DF-RHF iter  10:  -455.68816718036976   -7.65482e-09   7.95219e-08 DIIS
   @DF-RHF iter  11:  -455.68816718077755   -4.07795e-10   2.55038e-08 DIIS
   @DF-RHF iter  12:  -455.68816718082189   -4.43379e-11   6.05415e-09 DIIS
   @DF-RHF iter  13:  -455.68816718082513   -3.24007e-12   1.35121e-09 DIIS
   @DF-RHF iter  14:  -455.68816718082547   -3.41061e-13   6.46402e-10 DIIS
   @DF-RHF iter  15:  -455.68816718082553   -5.68434e-14   2.07337e-10 DIIS
   @DF-RHF iter  16:  -455.68816718082553    0.00000e+00   5.87525e-11 DIIS
  Energy and wave function converged.


  ==> Post-Iterations <==

    Orbital Energies [Eh]
    ---------------------

    Doubly Occupied:                                                      

       1A    -20.629936     2A    -20.629936     3A    -20.553308  
       4A    -20.553225     5A    -11.396618     6A    -11.396520  
       7A    -11.251554     8A    -11.251301     9A     -1.476327  
      10A     -1.476299    11A     -1.357979    12A     -1.357918  
      13A     -1.033550    14A     -1.033351    15A     -0.838421  
      16A     -0.838356    17A     -0.703556    18A     -0.703495  
      19A     -0.688982    20A     -0.688860    21A     -0.658253  
      22A     -0.658154    23A     -0.577045    24A     -0.576943  
      25A     -0.570230    26A     -0.570063    27A     -0.561975  
      28A     -0.561740    29A     -0.475835    30A     -0.475778  
      31A     -0.452942    32A     -0.452849  

    Virtual:                                                              

      33A      0.031428    34A      0.032041    35A      0.044510  
      36A      0.045662    37A      0.054568    38A      0.054873  
      39A      0.063932    40A      0.064412    41A      0.098146  
      42A      0.098404    43A      0.116799    44A      0.116945  
      45A      0.117347    46A      0.117436    47A      0.139841  
      48A      0.140230    49A      0.151475    50A      0.151550  
      51A      0.155733    52A      0.156188    53A      0.163636  
      54A      0.164682    55A      0.170699    56A      0.171101  
      57A      0.195741    58A      0.195946    59A      0.208708  
      60A      0.208822    61A      0.232834    62A      0.233026  
      63A      0.234406    64A      0.234653    65A      0.270275  
      66A      0.270507    67A      0.289815    68A      0.289869  
      69A      0.295269    70A      0.295447    71A      0.319251  
      72A      0.319456    73A      0.322328    74A      0.322350  
      75A      0.346592    76A      0.347071    77A      0.370130  
      78A      0.370241    79A      0.378323    80A      0.378517  
      81A      0.393595    82A      0.393731    83A      0.400846  
      84A      0.401120    85A      0.426179    86A      0.426353  
      87A      0.437660    88A      0.437867    89A      0.441454  
      90A      0.441699    91A      0.475072    92A      0.475100  
      93A      0.491826    94A      0.492009    95A      0.524200  
      96A      0.524437    97A      0.536703    98A      0.536899  
      99A      0.552795   100A      0.553282   101A      0.569144  
     102A      0.569419   103A      0.583208   104A      0.583475  
     105A      0.601578   106A      0.601723   107A      0.617672  
     108A      0.617870   109A      0.639793   110A      0.639932  
     111A      0.648756   112A      0.648933   113A      0.666169  
     114A      0.666344   115A      0.683649   116A      0.683847  
     117A      0.696656   118A      0.696822   119A      0.702999  
     120A      0.703243   121A      0.732761   122A      0.732922  
     123A      0.742214   124A      0.742385   125A      0.797884  
     126A      0.798133   127A      0.853062   128A      0.853183  
     129A      0.876337   130A      0.876407   131A      0.911897  
     132A      0.911994   133A      0.949186   134A      0.949302  
     135A      0.953858   136A      0.953971   137A      0.982624  
     138A      0.982750   139A      1.041041   140A      1.041147  
     141A      1.088260   142A      1.088477   143A      1.101285  
     144A      1.101513   145A      1.117770   146A      1.118053  
     147A      1.157039   148A      1.157082   149A      1.171643  
     150A      1.171729   151A      1.175823   152A      1.175990  
     153A      1.235550   154A      1.235626   155A      1.271690  
     156A      1.271759   157A      1.318729   158A      1.318804  
     159A      1.357640   160A      1.357808   161A      1.389847  
     162A      1.390117   163A      1.411909   164A      1.412091  
     165A      1.462262   166A      1.462413   167A      1.467502  
     168A      1.467522   169A      1.545462   170A      1.545661  
     171A      1.634536   172A      1.634643   173A      1.649409  
     174A      1.649513   175A      1.714539   176A      1.714765  
     177A      1.755269   178A      1.755422   179A      1.772305  
     180A      1.772572   181A      1.847522   182A      1.847640  
     183A      1.864959   184A      1.865142   185A      1.883240  
     186A      1.883494   187A      1.965957   188A      1.966046  
     189A      1.978946   190A      1.979033   191A      2.025715  
     192A      2.025979   193A      2.037134   194A      2.037233  
     195A      2.122320   196A      2.122460   197A      2.171528  
     198A      2.171665   199A      2.192600   200A      2.192768  
     201A      2.244213   202A      2.244422   203A      2.253117  
     204A      2.253259   205A      2.271833   206A      2.271961  
     207A      2.311715   208A      2.311855   209A      2.379062  
     210A      2.379249   211A      2.429827   212A      2.429908  
     213A      2.438119   214A      2.438304   215A      2.535762  
     216A      2.535944   217A      2.623065   218A      2.623192  
     219A      2.651735   220A      2.651978   221A      2.783125  
     222A      2.783323   223A      2.833116   224A      2.833270  
     225A      2.885543   226A      2.885806   227A      2.973782  
     228A      2.973892   229A      3.001044   230A      3.001259  
     231A      3.015769   232A      3.015961   233A      3.178433  
     234A      3.178529   235A      3.345593   236A      3.345740  
     237A      3.666242   238A      3.666255   239A      3.689960  
     240A      3.689967   241A      3.735961   242A      3.736002  
     243A      3.759167   244A      3.759231   245A      3.789831  
     246A      3.789894   247A      3.804756   248A      3.804820  
     249A      3.899927   250A      3.899986   251A      4.049876  
     252A      4.049937   253A      4.141848   254A      4.141908  
     255A      4.309482   256A      4.309504  

    Final Occupation by Irrep:
              A 
    DOCC [    32 ]

  @DF-RHF Final Energy:  -455.68816718082553

   => Energetics <=

    Nuclear Repulsion Energy =            279.2606233868673371
    One-Electron Energy =               -1176.9949807956343193
    Two-Electron Energy =                 442.0461902279414517
    Total Energy =                       -455.6881671808255305

Computation Completed


Properties will be evaluated at   0.000000,   0.000000,   0.000000 [a0]

Properties computed using the SCF density matrix

  Nuclear Dipole Moment: [e a0]
     X:    53.1220      Y:     4.9467      Z:  -746.8275

  Electronic Dipole Moment: [e a0]
     X:   -53.1211      Y:    -4.9462      Z:   746.6610

  Dipole Moment: [e a0]
     X:     0.0009      Y:     0.0005      Z:    -0.1665     Total:     0.1666

  Dipole Moment: [D]
     X:     0.0022      Y:     0.0012      Z:    -0.4233     Total:     0.4233


*** tstop() called on ds1 at Wed Sep  1 13:11:31 2021
Module time:
	user time   =      14.91 seconds =       0.25 minutes
	system time =       0.41 seconds =       0.01 minutes
	total time  =          3 seconds =       0.05 minutes
Total time:
	user time   =      14.91 seconds =       0.25 minutes
	system time =       0.41 seconds =       0.01 minutes
	total time  =          3 seconds =       0.05 minutes

  //>>>>>>>>>>>>>>>>>>>>>>>>>>>>>>>>>>>//
  //            Monomer A HF           //
  //<<<<<<<<<<<<<<<<<<<<<<<<<<<<<<<<<<<//


*** tstart() called on ds1
*** at Wed Sep  1 13:11:31 2021

   => Loading Basis Set <=

    Name: AUG-CC-PVDZ
    Role: ORBITAL
    Keyword: BASIS
    atoms 1-2, 9-10  entry O          line   254 file /theoryfs2/ds/csargent/miniconda3/envs/cle/share/psi4/basis/aug-cc-pvdz.gbs 
    atoms 3-6, 11-14 entry H          line    40 file /theoryfs2/ds/csargent/miniconda3/envs/cle/share/psi4/basis/aug-cc-pvdz.gbs 
    atoms 7-8, 15-16 entry C          line   182 file /theoryfs2/ds/csargent/miniconda3/envs/cle/share/psi4/basis/aug-cc-pvdz.gbs 


         ---------------------------------------------------------
                                   SCF
               by Justin Turney, Rob Parrish, Andy Simmonett
                          and Daniel G. A. Smith
                              RHF Reference
                        6 Threads,   6675 MiB Core
         ---------------------------------------------------------

  ==> Geometry <==

    Molecular point group: c1
    Full point group: C1

    Geometry (in Bohr), charge = 0, multiplicity = 1:

       Center              X                  Y                   Z               Mass       
    ------------   -----------------  -----------------  -----------------  -----------------
         O           -5.531022370000     2.939402900000     1.977626240000    15.994914619570
         O           -2.407088860000     0.908177340000     0.049059090000    15.994914619570
         H           -0.503048870000     1.375792050000     4.638809080000     1.007825032230
         H            0.000000000000     4.251042850000     3.090722380000     1.007825032230
         H           -2.389482150000     4.019167790000     5.401950410000     1.007825032230
         H           -3.747714110000     0.471479300000    -1.215575120000     1.007825032230
         C           -1.418597820000     2.985005000000     3.844051900000    12.000000000000
         C           -3.322637810000     2.286288140000     1.912214130000    12.000000000000
      Gh(O)           7.191083650000    -2.784819530000   -25.277421230000    15.994914619570
      Gh(O)           4.067150150000    -0.753593960000   -27.205988390000    15.994914619570
      Gh(H)           2.163110160000    -1.221208670000   -22.616238400000     1.007825032230
      Gh(H)           1.660061280000    -4.096459480000   -24.164325090000     1.007825032230
      Gh(H)           4.049543440000    -3.864584410000   -21.853097070000     1.007825032230
      Gh(H)           5.407775400000    -0.316895920000   -28.470622590000     1.007825032230
      Gh(C)           3.078659110000    -2.830421620000   -23.410995580000    12.000000000000
      Gh(C)           4.982699100000    -2.131704760000   -25.342833350000    12.000000000000

  Running in c1 symmetry.

  Rotational constants: A =      0.05395  B =      0.00146  C =      0.00144 [cm^-1]
  Rotational constants: A =   1617.48523  B =     43.91332  C =     43.02144 [MHz]
  Nuclear repulsion =  121.748430210971620

  Charge       = 0
  Multiplicity = 1
  Electrons    = 32
  Nalpha       = 16
  Nbeta        = 16

  ==> Algorithm <==

  SCF Algorithm Type is DF.
  DIIS enabled.
  MOM disabled.
  Fractional occupation disabled.
  Guess Type is SAD.
  Energy threshold   = 1.00e-10
  Density threshold  = 1.00e-10
  Integral threshold = 1.00e-12

  ==> Primary Basis <==

  Basis Set: AUG-CC-PVDZ
    Blend: AUG-CC-PVDZ
    Number of shells: 112
    Number of basis functions: 256
    Number of Cartesian functions: 272
    Spherical Harmonics?: true
    Max angular momentum: 2

   => Loading Basis Set <=

    Name: (AUG-CC-PVDZ AUX)
    Role: JKFIT
    Keyword: DF_BASIS_SCF
    atoms 1-2, 9-10  entry O          line   270 file /theoryfs2/ds/csargent/miniconda3/envs/cle/share/psi4/basis/aug-cc-pvdz-jkfit.gbs 
    atoms 3-6, 11-14 entry H          line    70 file /theoryfs2/ds/csargent/miniconda3/envs/cle/share/psi4/basis/aug-cc-pvdz-jkfit.gbs 
    atoms 7-8, 15-16 entry C          line   154 file /theoryfs2/ds/csargent/miniconda3/envs/cle/share/psi4/basis/aug-cc-pvdz-jkfit.gbs 

  ==> Integral Setup <==

  ==> DiskDFJK: Density-Fitted J/K Matrices <==

    J tasked:                  Yes
    K tasked:                  Yes
    wK tasked:                  No
    OpenMP threads:              6
    Integrals threads:           6
    Memory [MiB]:             5006
    Algorithm:                Core
    Integral Cache:           LOAD
    Schwarz Cutoff:          1E-12
    Fitting Condition:       1E-10

   => Auxiliary Basis Set <=

  Basis Set: (AUG-CC-PVDZ AUX)
    Blend: AUG-CC-PVDZ-JKFIT
    Number of shells: 320
    Number of basis functions: 944
    Number of Cartesian functions: 1088
    Spherical Harmonics?: true
    Max angular momentum: 3

  Minimum eigenvalue in the overlap matrix is 1.0274759169E-04.
  Reciprocal condition number of the overlap matrix is 9.6512511308E-06.
    Using symmetric orthogonalization.

  ==> Pre-Iterations <==

  SCF Guess: Superposition of Atomic Densities via on-the-fly atomic UHF (no occupation information).

   -------------------------
    Irrep   Nso     Nmo    
   -------------------------
     A        256     256 
   -------------------------
    Total     256     256
   -------------------------

  ==> Iterations <==

                           Total Energy        Delta E     RMS |[F,P]|

   @DF-RHF iter SAD:  -226.98992943061123   -2.26990e+02   0.00000e+00 
   @DF-RHF iter   1:  -227.68091168212146   -6.90982e-01   2.28211e-03 DIIS
   @DF-RHF iter   2:  -227.80091445615275   -1.20003e-01   1.32478e-03 DIIS
   @DF-RHF iter   3:  -227.84131987544683   -4.04054e-02   2.33581e-04 DIIS
   @DF-RHF iter   4:  -227.84355633894208   -2.23646e-03   1.03339e-04 DIIS
   @DF-RHF iter   5:  -227.84403723994009   -4.80901e-04   2.42136e-05 DIIS
   @DF-RHF iter   6:  -227.84407440793748   -3.71680e-05   1.17797e-05 DIIS
   @DF-RHF iter   7:  -227.84408419606260   -9.78813e-06   3.84272e-06 DIIS
   @DF-RHF iter   8:  -227.84408577764978   -1.58159e-06   1.01577e-06 DIIS
   @DF-RHF iter   9:  -227.84408589429992   -1.16650e-07   2.12954e-07 DIIS
   @DF-RHF iter  10:  -227.84408589812054   -3.82062e-09   5.61608e-08 DIIS
   @DF-RHF iter  11:  -227.84408589832407   -2.03528e-10   1.80148e-08 DIIS
   @DF-RHF iter  12:  -227.84408589834598   -2.19131e-11   4.26466e-09 DIIS
   @DF-RHF iter  13:  -227.84408589834729   -1.30740e-12   8.93569e-10 DIIS
   @DF-RHF iter  14:  -227.84408589834740   -1.13687e-13   2.86710e-10 DIIS
   @DF-RHF iter  15:  -227.84408589834732    8.52651e-14   1.08058e-10 DIIS
   @DF-RHF iter  16:  -227.84408589834777   -4.54747e-13   2.86098e-11 DIIS
  Energy and wave function converged.


  ==> Post-Iterations <==

    Orbital Energies [Eh]
    ---------------------

    Doubly Occupied:                                                      

       1A    -20.629476     2A    -20.552804     3A    -11.396108  
       4A    -11.250979     5A     -1.475853     6A     -1.357486  
       7A     -1.032999     8A     -0.837930     9A     -0.703065  
      10A     -0.688465    11A     -0.657749    12A     -0.576538  
      13A     -0.569697    14A     -0.561403    15A     -0.475343  
      16A     -0.452434  

    Virtual:                                                              

      17A      0.024216    18A      0.032202    19A      0.045332  
      20A      0.046579    21A      0.054976    22A      0.055147  
      23A      0.055937    24A      0.064645    25A      0.084854  
      26A      0.098731    27A      0.104134    28A      0.111667  
      29A      0.116692    30A      0.117344    31A      0.117858  
      32A      0.139463    33A      0.140686    34A      0.140972  
      35A      0.146307    36A      0.152073    37A      0.156363  
      38A      0.164604    39A      0.171324    40A      0.175857  
      41A      0.196303    42A      0.205186    43A      0.209249  
      44A      0.214150    45A      0.225801    46A      0.233377  
      47A      0.234965    48A      0.243567    49A      0.259782  
      50A      0.264357    51A      0.270856    52A      0.276182  
      53A      0.284979    54A      0.290296    55A      0.295802  
      56A      0.319804    57A      0.322781    58A      0.331791  
      59A      0.335664    60A      0.347316    61A      0.368856  
      62A      0.370653    63A      0.378870    64A      0.394120  
      65A      0.398702    66A      0.401433    67A      0.409211  
      68A      0.426692    69A      0.430581    70A      0.437391  
      71A      0.438222    72A      0.442011    73A      0.460024  
      74A      0.475558    75A      0.489749    76A      0.492357  
      77A      0.496816    78A      0.516019    79A      0.524763  
      80A      0.537265    81A      0.541320    82A      0.543011  
      83A      0.553496    84A      0.559104    85A      0.569741  
      86A      0.583791    87A      0.586269    88A      0.602119  
      89A      0.615845    90A      0.618232    91A      0.635724  
      92A      0.636570    93A      0.640312    94A      0.649301  
      95A      0.666705    96A      0.674639    97A      0.684215  
      98A      0.689398    99A      0.697190   100A      0.700263  
     101A      0.703571   102A      0.727542   103A      0.733290  
     104A      0.742748   105A      0.753108   106A      0.759761  
     107A      0.786629   108A      0.798460   109A      0.815210  
     110A      0.819536   111A      0.847690   112A      0.853588  
     113A      0.876833   114A      0.887628   115A      0.895895  
     116A      0.912404   117A      0.947085   118A      0.949697  
     119A      0.954382   120A      0.957588   121A      0.975397  
     122A      0.983148   123A      1.037468   124A      1.041548  
     125A      1.044712   126A      1.088819   127A      1.101839  
     128A      1.105904   129A      1.118369   130A      1.157520  
     131A      1.162103   132A      1.172142   133A      1.176360  
     134A      1.190419   135A      1.236033   136A      1.260192  
     137A      1.269782   138A      1.272187   139A      1.319230  
     140A      1.329108   141A      1.358183   142A      1.383631  
     143A      1.390448   144A      1.395805   145A      1.412451  
     146A      1.434187   147A      1.457918   148A      1.462804  
     149A      1.467193   150A      1.467976   151A      1.469069  
     152A      1.537080   153A      1.546014   154A      1.568836  
     155A      1.635048   156A      1.649916   157A      1.683235  
     158A      1.715102   159A      1.716997   160A      1.755800  
     161A      1.772886   162A      1.799523   163A      1.848040  
     164A      1.865503   165A      1.882314   166A      1.883811  
     167A      1.936482   168A      1.966454   169A      1.979454  
     170A      2.026299   171A      2.037644   172A      2.070233  
     173A      2.122850   174A      2.172049   175A      2.193137  
     176A      2.244771   177A      2.250319   178A      2.253643  
     179A      2.264399   180A      2.272354   181A      2.273516  
     182A      2.302456   183A      2.312246   184A      2.336035  
     185A      2.338571   186A      2.361634   187A      2.376067  
     188A      2.379604   189A      2.430330   190A      2.438663  
     191A      2.466701   192A      2.505442   193A      2.536304  
     194A      2.585508   195A      2.623585   196A      2.652307  
     197A      2.664241   198A      2.697834   199A      2.753839  
     200A      2.783682   201A      2.785690   202A      2.823708  
     203A      2.833647   204A      2.886124   205A      2.915557  
     206A      2.974293   207A      3.001603   208A      3.016320  
     209A      3.042267   210A      3.178936   211A      3.181965  
     212A      3.278130   213A      3.310247   214A      3.346125  
     215A      3.356424   216A      3.431085   217A      3.486238  
     218A      3.662370   219A      3.666705   220A      3.690423  
     221A      3.736441   222A      3.739747   223A      3.759662  
     224A      3.790325   225A      3.805251   226A      3.900418  
     227A      4.025741   228A      4.050369   229A      4.142342  
     230A      4.153387   231A      4.309953   232A      4.504623  
     233A      4.616583   234A      4.724521   235A      4.925608  
     236A      4.969434   237A      4.977724   238A      5.001360  
     239A      5.016567   240A      5.033452   241A      5.052072  
     242A      5.221653   243A      5.243814   244A      5.614960  
     245A      5.660940   246A      5.791059   247A      5.868737  
     248A      6.052509   249A      6.228552   250A      6.520526  
     251A      6.790007   252A      7.092682   253A     18.345875  
     254A     18.940388   255A     33.525241   256A     33.563334  

    Final Occupation by Irrep:
              A 
    DOCC [    16 ]

  @DF-RHF Final Energy:  -227.84408589834777

   => Energetics <=

    Nuclear Repulsion Energy =            121.7484302109716197
    One-Electron Energy =                -552.7483714443619647
    Two-Electron Energy =                 203.1558553350425882
    Total Energy =                       -227.8440858983477710

Computation Completed


Properties will be evaluated at   0.000000,   0.000000,   0.000000 [a0]

Properties computed using the SCF density matrix

  Nuclear Dipole Moment: [e a0]
     X:   -98.5925      Y:    72.5259      Z:    62.6670

  Electronic Dipole Moment: [e a0]
     X:    99.4206      Y:   -72.8088      Z:   -62.7502

  Dipole Moment: [e a0]
     X:     0.8281      Y:    -0.2829      Z:    -0.0832     Total:     0.8790

  Dipole Moment: [D]
     X:     2.1048      Y:    -0.7191      Z:    -0.2116     Total:     2.2342


*** tstop() called on ds1 at Wed Sep  1 13:11:33 2021
Module time:
	user time   =      10.83 seconds =       0.18 minutes
	system time =       0.21 seconds =       0.00 minutes
	total time  =          2 seconds =       0.03 minutes
Total time:
	user time   =      25.92 seconds =       0.43 minutes
	system time =       0.62 seconds =       0.01 minutes
	total time  =          5 seconds =       0.08 minutes

  //>>>>>>>>>>>>>>>>>>>>>>>>>>>>>>>>>>>//
  //            Monomer B HF           //
  //<<<<<<<<<<<<<<<<<<<<<<<<<<<<<<<<<<<//


*** tstart() called on ds1
*** at Wed Sep  1 13:11:34 2021

   => Loading Basis Set <=

    Name: AUG-CC-PVDZ
    Role: ORBITAL
    Keyword: BASIS
    atoms 1-2, 9-10  entry O          line   254 file /theoryfs2/ds/csargent/miniconda3/envs/cle/share/psi4/basis/aug-cc-pvdz.gbs 
    atoms 3-6, 11-14 entry H          line    40 file /theoryfs2/ds/csargent/miniconda3/envs/cle/share/psi4/basis/aug-cc-pvdz.gbs 
    atoms 7-8, 15-16 entry C          line   182 file /theoryfs2/ds/csargent/miniconda3/envs/cle/share/psi4/basis/aug-cc-pvdz.gbs 


         ---------------------------------------------------------
                                   SCF
               by Justin Turney, Rob Parrish, Andy Simmonett
                          and Daniel G. A. Smith
                              RHF Reference
                        6 Threads,   6675 MiB Core
         ---------------------------------------------------------

  ==> Geometry <==

    Molecular point group: c1
    Full point group: C1

    Geometry (in Bohr), charge = 0, multiplicity = 1:

       Center              X                  Y                   Z               Mass       
    ------------   -----------------  -----------------  -----------------  -----------------
      Gh(O)          -5.531022370000     2.939402900000     1.977626240000    15.994914619570
      Gh(O)          -2.407088860000     0.908177340000     0.049059090000    15.994914619570
      Gh(H)          -0.503048870000     1.375792050000     4.638809080000     1.007825032230
      Gh(H)           0.000000000000     4.251042850000     3.090722380000     1.007825032230
      Gh(H)          -2.389482150000     4.019167790000     5.401950410000     1.007825032230
      Gh(H)          -3.747714110000     0.471479300000    -1.215575120000     1.007825032230
      Gh(C)          -1.418597820000     2.985005000000     3.844051900000    12.000000000000
      Gh(C)          -3.322637810000     2.286288140000     1.912214130000    12.000000000000
         O            7.191083650000    -2.784819530000   -25.277421230000    15.994914619570
         O            4.067150150000    -0.753593960000   -27.205988390000    15.994914619570
         H            2.163110160000    -1.221208670000   -22.616238400000     1.007825032230
         H            1.660061280000    -4.096459480000   -24.164325090000     1.007825032230
         H            4.049543440000    -3.864584410000   -21.853097070000     1.007825032230
         H            5.407775400000    -0.316895920000   -28.470622590000     1.007825032230
         C            3.078659110000    -2.830421620000   -23.410995580000    12.000000000000
         C            4.982699100000    -2.131704760000   -25.342833350000    12.000000000000

  Running in c1 symmetry.

  Rotational constants: A =      0.05395  B =      0.00146  C =      0.00144 [cm^-1]
  Rotational constants: A =   1617.48523  B =     43.91332  C =     43.02144 [MHz]
  Nuclear repulsion =  121.748430295917586

  Charge       = 0
  Multiplicity = 1
  Electrons    = 32
  Nalpha       = 16
  Nbeta        = 16

  ==> Algorithm <==

  SCF Algorithm Type is DF.
  DIIS enabled.
  MOM disabled.
  Fractional occupation disabled.
  Guess Type is SAD.
  Energy threshold   = 1.00e-10
  Density threshold  = 1.00e-10
  Integral threshold = 1.00e-12

  ==> Primary Basis <==

  Basis Set: AUG-CC-PVDZ
    Blend: AUG-CC-PVDZ
    Number of shells: 112
    Number of basis functions: 256
    Number of Cartesian functions: 272
    Spherical Harmonics?: true
    Max angular momentum: 2

   => Loading Basis Set <=

    Name: (AUG-CC-PVDZ AUX)
    Role: JKFIT
    Keyword: DF_BASIS_SCF
    atoms 1-2, 9-10  entry O          line   270 file /theoryfs2/ds/csargent/miniconda3/envs/cle/share/psi4/basis/aug-cc-pvdz-jkfit.gbs 
    atoms 3-6, 11-14 entry H          line    70 file /theoryfs2/ds/csargent/miniconda3/envs/cle/share/psi4/basis/aug-cc-pvdz-jkfit.gbs 
    atoms 7-8, 15-16 entry C          line   154 file /theoryfs2/ds/csargent/miniconda3/envs/cle/share/psi4/basis/aug-cc-pvdz-jkfit.gbs 

  ==> Integral Setup <==

  ==> DiskDFJK: Density-Fitted J/K Matrices <==

    J tasked:                  Yes
    K tasked:                  Yes
    wK tasked:                  No
    OpenMP threads:              6
    Integrals threads:           6
    Memory [MiB]:             5006
    Algorithm:                Core
    Integral Cache:           LOAD
    Schwarz Cutoff:          1E-12
    Fitting Condition:       1E-10

   => Auxiliary Basis Set <=

  Basis Set: (AUG-CC-PVDZ AUX)
    Blend: AUG-CC-PVDZ-JKFIT
    Number of shells: 320
    Number of basis functions: 944
    Number of Cartesian functions: 1088
    Spherical Harmonics?: true
    Max angular momentum: 3

  Minimum eigenvalue in the overlap matrix is 1.0274759169E-04.
  Reciprocal condition number of the overlap matrix is 9.6512511308E-06.
    Using symmetric orthogonalization.

  ==> Pre-Iterations <==

  SCF Guess: Superposition of Atomic Densities via on-the-fly atomic UHF (no occupation information).

   -------------------------
    Irrep   Nso     Nmo    
   -------------------------
     A        256     256 
   -------------------------
    Total     256     256
   -------------------------

  ==> Iterations <==

                           Total Energy        Delta E     RMS |[F,P]|

   @DF-RHF iter SAD:  -226.98992943802492   -2.26990e+02   0.00000e+00 
   @DF-RHF iter   1:  -227.68091167716597   -6.90982e-01   2.28211e-03 DIIS
   @DF-RHF iter   2:  -227.80091445246720   -1.20003e-01   1.32478e-03 DIIS
   @DF-RHF iter   3:  -227.84131987211924   -4.04054e-02   2.33581e-04 DIIS
   @DF-RHF iter   4:  -227.84355633560375   -2.23646e-03   1.03339e-04 DIIS
   @DF-RHF iter   5:  -227.84403723661302   -4.80901e-04   2.42136e-05 DIIS
   @DF-RHF iter   6:  -227.84407440460851   -3.71680e-05   1.17797e-05 DIIS
   @DF-RHF iter   7:  -227.84408419273419   -9.78813e-06   3.84272e-06 DIIS
   @DF-RHF iter   8:  -227.84408577432049   -1.58159e-06   1.01577e-06 DIIS
   @DF-RHF iter   9:  -227.84408589097106   -1.16651e-07   2.12953e-07 DIIS
   @DF-RHF iter  10:  -227.84408589479148   -3.82042e-09   5.61608e-08 DIIS
   @DF-RHF iter  11:  -227.84408589499529   -2.03812e-10   1.80147e-08 DIIS
   @DF-RHF iter  12:  -227.84408589501709   -2.17995e-11   4.26466e-09 DIIS
   @DF-RHF iter  13:  -227.84408589501865   -1.56319e-12   8.93569e-10 DIIS
   @DF-RHF iter  14:  -227.84408589501899   -3.41061e-13   2.86710e-10 DIIS
   @DF-RHF iter  15:  -227.84408589501862    3.69482e-13   1.08058e-10 DIIS
   @DF-RHF iter  16:  -227.84408589501851    1.13687e-13   2.86097e-11 DIIS
  Energy and wave function converged.


  ==> Post-Iterations <==

    Orbital Energies [Eh]
    ---------------------

    Doubly Occupied:                                                      

       1A    -20.629476     2A    -20.552804     3A    -11.396108  
       4A    -11.250979     5A     -1.475853     6A     -1.357486  
       7A     -1.032999     8A     -0.837930     9A     -0.703065  
      10A     -0.688465    11A     -0.657749    12A     -0.576538  
      13A     -0.569697    14A     -0.561403    15A     -0.475343  
      16A     -0.452434  

    Virtual:                                                              

      17A      0.024383    18A      0.032201    19A      0.045296  
      20A      0.046544    21A      0.055074    22A      0.055316  
      23A      0.056234    24A      0.064642    25A      0.084914  
      26A      0.098768    27A      0.104210    28A      0.111814  
      29A      0.117083    30A      0.117348    31A      0.117865  
      32A      0.139842    33A      0.140588    34A      0.141044  
      35A      0.146540    36A      0.151976    37A      0.156420  
      38A      0.164620    39A      0.171337    40A      0.175982  
      41A      0.196304    42A      0.205196    43A      0.209237  
      44A      0.214178    45A      0.225808    46A      0.233412  
      47A      0.234967    48A      0.243642    49A      0.259834  
      50A      0.264405    51A      0.270849    52A      0.276246  
      53A      0.285059    54A      0.290295    55A      0.295810  
      56A      0.319834    57A      0.322785    58A      0.331961  
      59A      0.335933    60A      0.347279    61A      0.369146  
      62A      0.370652    63A      0.378870    64A      0.394119  
      65A      0.398988    66A      0.401436    67A      0.409496  
      68A      0.426691    69A      0.430786    70A      0.437581  
      71A      0.438255    72A      0.442017    73A      0.459954  
      74A      0.475555    75A      0.489818    76A      0.492362  
      77A      0.496914    78A      0.516097    79A      0.524763  
      80A      0.537262    81A      0.541286    82A      0.543251  
      83A      0.553504    84A      0.559272    85A      0.569754  
      86A      0.583799    87A      0.586498    88A      0.602101  
      89A      0.615910    90A      0.618249    91A      0.635878  
      92A      0.636695    93A      0.640311    94A      0.649301  
      95A      0.666706    96A      0.674757    97A      0.684210  
      98A      0.689617    99A      0.697190   100A      0.700483  
     101A      0.703571   102A      0.727830   103A      0.733289  
     104A      0.742751   105A      0.753271   106A      0.760009  
     107A      0.786823   108A      0.798460   109A      0.815481  
     110A      0.819801   111A      0.847926   112A      0.853582  
     113A      0.876833   114A      0.887873   115A      0.896035  
     116A      0.912404   117A      0.947262   118A      0.949697  
     119A      0.954375   120A      0.957758   121A      0.975541  
     122A      0.983144   123A      1.037564   124A      1.041548  
     125A      1.044791   126A      1.088819   127A      1.101837  
     128A      1.106038   129A      1.118373   130A      1.157523  
     131A      1.162144   132A      1.172141   133A      1.176361  
     134A      1.190452   135A      1.236033   136A      1.260192  
     137A      1.269790   138A      1.272191   139A      1.319230  
     140A      1.329141   141A      1.358185   142A      1.383646  
     143A      1.390441   144A      1.395809   145A      1.412453  
     146A      1.434240   147A      1.457892   148A      1.462795  
     149A      1.467206   150A      1.467976   151A      1.469086  
     152A      1.537123   153A      1.546015   154A      1.568864  
     155A      1.635049   156A      1.649915   157A      1.683286  
     158A      1.715110   159A      1.717062   160A      1.755800  
     161A      1.772885   162A      1.799549   163A      1.848042  
     164A      1.865504   165A      1.882630   166A      1.883811  
     167A      1.936743   168A      1.966457   169A      1.979454  
     170A      2.026307   171A      2.037642   172A      2.070470  
     173A      2.122849   174A      2.172049   175A      2.193142  
     176A      2.244772   177A      2.250627   178A      2.253644  
     179A      2.264691   180A      2.272354   181A      2.273538  
     182A      2.302717   183A      2.312248   184A      2.336350  
     185A      2.338865   186A      2.361836   187A      2.376192  
     188A      2.379608   189A      2.430332   190A      2.438666  
     191A      2.466773   192A      2.505413   193A      2.536303  
     194A      2.585639   195A      2.623585   196A      2.652307  
     197A      2.664344   198A      2.698054   199A      2.754094  
     200A      2.783682   201A      2.785930   202A      2.823959  
     203A      2.833647   204A      2.886123   205A      2.915661  
     206A      2.974291   207A      3.001603   208A      3.016316  
     209A      3.042433   210A      3.178936   211A      3.182180  
     212A      3.278367   213A      3.310446   214A      3.346127  
     215A      3.356643   216A      3.431233   217A      3.486497  
     218A      3.662523   219A      3.666705   220A      3.690423  
     221A      3.736441   222A      3.739759   223A      3.759662  
     224A      3.790324   225A      3.805251   226A      3.900417  
     227A      4.025828   228A      4.050368   229A      4.142340  
     230A      4.153327   231A      4.309953   232A      4.504660  
     233A      4.616601   234A      4.724717   235A      4.925622  
     236A      4.969473   237A      4.977708   238A      5.001386  
     239A      5.016583   240A      5.033447   241A      5.052313  
     242A      5.221782   243A      5.244007   244A      5.614919  
     245A      5.660936   246A      5.791039   247A      5.868783  
     248A      6.052532   249A      6.228593   250A      6.520497  
     251A      6.789989   252A      7.092697   253A     18.346078  
     254A     18.940566   255A     33.525278   256A     33.563287  

    Final Occupation by Irrep:
              A 
    DOCC [    16 ]

  @DF-RHF Final Energy:  -227.84408589501851

   => Energetics <=

    Nuclear Repulsion Energy =            121.7484302959175864
    One-Electron Energy =                -552.7483716010210628
    Two-Electron Energy =                 203.1558554100849392
    Total Energy =                       -227.8440858950185088

Computation Completed


Properties will be evaluated at   0.000000,   0.000000,   0.000000 [a0]

Properties computed using the SCF density matrix

  Nuclear Dipole Moment: [e a0]
     X:   151.7145      Y:   -67.5792      Z:  -809.4945

  Electronic Dipole Moment: [e a0]
     X:  -152.5426      Y:    67.8621      Z:   809.4113

  Dipole Moment: [e a0]
     X:    -0.8281      Y:     0.2829      Z:    -0.0832     Total:     0.8790

  Dipole Moment: [D]
     X:    -2.1048      Y:     0.7191      Z:    -0.2116     Total:     2.2342


*** tstop() called on ds1 at Wed Sep  1 13:11:36 2021
Module time:
	user time   =      10.80 seconds =       0.18 minutes
	system time =       0.14 seconds =       0.00 minutes
	total time  =          2 seconds =       0.03 minutes
Total time:
	user time   =      36.92 seconds =       0.62 minutes
	system time =       0.77 seconds =       0.01 minutes
	total time  =          8 seconds =       0.13 minutes
  Constructing Basis Sets for SAPT...

   => Loading Basis Set <=

    Name: (AUG-CC-PVDZ AUX)
    Role: RIFIT
    Keyword: DF_BASIS_SAPT
    atoms 1-2, 9-10  entry O          line   204 file /theoryfs2/ds/csargent/miniconda3/envs/cle/share/psi4/basis/aug-cc-pvdz-ri.gbs 
    atoms 3-6, 11-14 entry H          line    30 file /theoryfs2/ds/csargent/miniconda3/envs/cle/share/psi4/basis/aug-cc-pvdz-ri.gbs 
    atoms 7-8, 15-16 entry C          line   112 file /theoryfs2/ds/csargent/miniconda3/envs/cle/share/psi4/basis/aug-cc-pvdz-ri.gbs 


  //>>>>>>>>>>>>>>>>>>>>>>>>>>>>>>>>>>>//
  //               SAPT0               //
  //<<<<<<<<<<<<<<<<<<<<<<<<<<<<<<<<<<<//


*** tstart() called on ds1
*** at Wed Sep  1 13:11:36 2021

        SAPT0  
    Ed Hohenstein
     6 June 2009

      Orbital Information
  --------------------------
    NSO        =       256
    NMO        =       256
    NRI        =       760
    NOCC A     =        16
    NOCC B     =        16
    FOCC A     =         4
    FOCC B     =         4
    NVIR A     =       240
    NVIR B     =       240

    Elst10,r            =     0.000004709760 [Eh]
    Exch10              =     0.000000000000 [Eh]
    Exch10 (S^2)        =     0.000000000000 [Eh]

    Iter     Energy [mEh]          dE [mEh]         Residual      Time [s]
       1      -0.00003325       0.000033247       0.040218621             0
       2      -0.00003727       0.000004023       0.019947991             0
       3      -0.00003975       0.000002480       0.006167945             0
       4      -0.00004011       0.000000359       0.001432117             0
       5      -0.00003999      -0.000000116       0.000539545             0
       6      -0.00003997      -0.000000022       0.000192061             0
       7      -0.00003998       0.000000008       0.000089155             0
       8      -0.00003998       0.000000003       0.000024301             0
       9      -0.00003998      -0.000000001       0.000006811             0
      10      -0.00003998      -0.000000000       0.000001943             0
      11      -0.00003998       0.000000000       0.000000681             0

    CHF Iterations converged


    Iter     Energy [mEh]          dE [mEh]         Residual      Time [s]
       1      -0.00002787       0.000027875       0.034488669             0
       2      -0.00003113       0.000003258       0.016899126             1
       3      -0.00003296       0.000001831       0.004836535             1
       4      -0.00003323       0.000000266       0.001176813             1
       5      -0.00003317      -0.000000054       0.000453693             1
       6      -0.00003315      -0.000000027       0.000107029             1
       7      -0.00003315       0.000000002       0.000041076             1
       8      -0.00003315       0.000000002       0.000015552             1
       9      -0.00003315      -0.000000000       0.000006306             1
      10      -0.00003315      -0.000000000       0.000001632             1
      11      -0.00003315       0.000000000       0.000000402             1

    CHF Iterations converged

    Ind20,r (A<-B)      =    -0.000000039981 [Eh]
    Ind20,r (B<-A)      =    -0.000000033150 [Eh]
    Ind20,r             =    -0.000000073131 [Eh]
    Exch-Ind20,r (A<-B) =     0.000000000002 [Eh]
    Exch-Ind20,r (B<-A) =     0.000000000001 [Eh]
    Exch-Ind20,r        =     0.000000000002 [Eh]
    Disp20              =    -0.000001168027 [Eh]
    Disp20 (SS)         =    -0.000000584014 [Eh]
    Disp20 (OS)         =    -0.000000584014 [Eh]
    Exch-Disp20         =     0.000000000000 [Eh]
    Exch-Disp20 (SS)    =     0.000000000000 [Eh]
    Exch-Disp20 (OS)    =     0.000000000000 [Eh]

    SAPT Results 
  --------------------------------------------------------------------------------------------------------
    Electrostatics                  0.00470976 [mEh]       0.00295542 [kcal/mol]       0.01236547 [kJ/mol]
      Elst10,r                      0.00470976 [mEh]       0.00295542 [kcal/mol]       0.01236547 [kJ/mol]

    Exchange                        0.00000000 [mEh]       0.00000000 [kcal/mol]       0.00000000 [kJ/mol]
      Exch10                        0.00000000 [mEh]       0.00000000 [kcal/mol]       0.00000000 [kJ/mol]
      Exch10(S^2)                   0.00000000 [mEh]       0.00000000 [kcal/mol]       0.00000000 [kJ/mol]

    Induction                      -0.00009722 [mEh]      -0.00006101 [kcal/mol]      -0.00025525 [kJ/mol]
      Ind20,r                      -0.00007313 [mEh]      -0.00004589 [kcal/mol]      -0.00019201 [kJ/mol]
      Exch-Ind20,r                  0.00000000 [mEh]       0.00000000 [kcal/mol]       0.00000001 [kJ/mol]
      delta HF,r (2)               -0.00002409 [mEh]      -0.00001512 [kcal/mol]      -0.00006325 [kJ/mol]

    Dispersion                     -0.00116803 [mEh]      -0.00073295 [kcal/mol]      -0.00306665 [kJ/mol]
      Disp20                       -0.00116803 [mEh]      -0.00073295 [kcal/mol]      -0.00306665 [kJ/mol]
      Exch-Disp20                   0.00000000 [mEh]       0.00000000 [kcal/mol]       0.00000000 [kJ/mol]
      Disp20 (SS)                  -0.00058401 [mEh]      -0.00036647 [kcal/mol]      -0.00153333 [kJ/mol]
      Disp20 (OS)                  -0.00058401 [mEh]      -0.00036647 [kcal/mol]      -0.00153333 [kJ/mol]
      Exch-Disp20 (SS)              0.00000000 [mEh]       0.00000000 [kcal/mol]       0.00000000 [kJ/mol]
      Exch-Disp20 (OS)              0.00000000 [mEh]       0.00000000 [kcal/mol]       0.00000000 [kJ/mol]

  Total HF                          0.00461254 [mEh]       0.00289441 [kcal/mol]       0.01211022 [kJ/mol]
  Total SAPT0                       0.00344451 [mEh]       0.00216147 [kcal/mol]       0.00904357 [kJ/mol]

  Special recipe for scaled SAPT0 (see Manual):
    Electrostatics sSAPT0           0.00470976 [mEh]       0.00295542 [kcal/mol]       0.01236547 [kJ/mol]
    Exchange sSAPT0                 0.00000000 [mEh]       0.00000000 [kcal/mol]       0.00000000 [kJ/mol]
    Induction sSAPT0               -0.00009722 [mEh]      -0.00006101 [kcal/mol]      -0.00025525 [kJ/mol]
    Dispersion sSAPT0              -0.00116803 [mEh]      -0.00073295 [kcal/mol]      -0.00306665 [kJ/mol]
  Total sSAPT0                      0.00344451 [mEh]       0.00216147 [kcal/mol]       0.00904357 [kJ/mol]
  --------------------------------------------------------------------------------------------------------

*** tstop() called on ds1 at Wed Sep  1 13:11:42 2021
Module time:
	user time   =      27.72 seconds =       0.46 minutes
	system time =       2.41 seconds =       0.04 minutes
	total time  =          6 seconds =       0.10 minutes
Total time:
	user time   =      65.41 seconds =       1.09 minutes
	system time =       3.20 seconds =       0.05 minutes
	total time  =         14 seconds =       0.23 minutes


Warning! sapt0 does not have an associated derived wavefunction.The returned wavefunction is the dimer SCF wavefunction.


    Psi4 stopped on: Wednesday, 01 September 2021 01:11PM
    Psi4 wall time for execution: 0:00:14.23

*** Psi4 exiting successfully. Buy a developer a beer!
