
    -----------------------------------------------------------------------
          Psi4: An Open-Source Ab Initio Electronic Structure Package
                               Psi4 1.4rc3 

                         Git: Rev {HEAD} 080dba6 


    D. G. A. Smith, L. A. Burns, A. C. Simmonett, R. M. Parrish,
    M. C. Schieber, R. Galvelis, P. Kraus, H. Kruse, R. Di Remigio,
    A. Alenaizan, A. M. James, S. Lehtola, J. P. Misiewicz, M. Scheurer,
    R. A. Shaw, J. B. Schriber, Y. Xie, Z. L. Glick, D. A. Sirianni,
    J. S. O'Brien, J. M. Waldrop, A. Kumar, E. G. Hohenstein,
    B. P. Pritchard, B. R. Brooks, H. F. Schaefer III, A. Yu. Sokolov,
    K. Patkowski, A. E. DePrince III, U. Bozkaya, R. A. King,
    F. A. Evangelista, J. M. Turney, T. D. Crawford, C. D. Sherrill,
    J. Chem. Phys. 152(18) 184108 (2020). https://doi.org/10.1063/5.0006002

                            Additional Code Authors
    E. T. Seidl, C. L. Janssen, E. F. Valeev, M. L. Leininger,
    J. F. Gonthier, R. M. Richard, H. R. McAlexander, M. Saitow, X. Wang,
    P. Verma, and M. H. Lechner

             Previous Authors, Complete List of Code Contributors,
                       and Citations for Specific Modules
    https://github.com/psi4/psi4/blob/master/codemeta.json
    https://github.com/psi4/psi4/graphs/contributors
    http://psicode.org/psi4manual/master/introduction.html#citing-psifour

    -----------------------------------------------------------------------


    Psi4 started on: Wednesday, 01 September 2021 01:27PM

    Process ID: 18359
    Host:       ds1
    PSIDATADIR: /theoryfs2/ds/csargent/miniconda3/envs/cle/share/psi4
    Memory:     500.0 MiB
    Threads:    6
    
  ==> Input File <==

--------------------------------------------------------------------------
# PSI4 file produced by CrystaLattE

# Generated from:               acetic_acid.xyz
# Psithon input for N-mer:      2mer-0+402
# Number of atoms per monomer:  [8, 8]
# Number of replicas:           2
# COM priority:                 2.512989902298e-05
# Minimum COM separations:      18.066 
# Separation priority:          3.656769355124e-05
# Minimum monomer separations:  15.943 
# Cutoff priority:              1.213752372142e-06
# Nuclear repulsion energy:     273.38100619022896

memory 7 GB

molecule Dimer_0_402 {
  O           -5.53102237       2.93940290       1.97762624 
  O           -2.40708886       0.90817734       0.04905909 
  H           -0.50304887       1.37579205       4.63880908 
  H            0.00000000       4.25104285       3.09072238 
  H           -2.38948215       4.01916779       5.40195041 
  H           -3.74771411       0.47147930      -1.21557512 
  C           -1.41859782       2.98500500       3.84405190 
  C           -3.32263781       2.28628814       1.91221413 
--
  O          -30.53758190       6.80398732     -14.37540224 
  O          -33.66151541       4.77276175     -16.30396940 
  H          -35.56555540       5.24037646     -11.71421941 
  H          -36.06860427       8.11562727     -13.26230610 
  H          -33.67912212       7.88375220     -10.95107808 
  H          -32.32089016       4.33606371     -17.56860360 
  C          -34.65000644       6.84958941     -12.50897659 
  C          -32.74596646       6.15087255     -14.44081435 
units = au
no_com
no_reorient
}

set {
  e_convergence 10
  d_convergence 10
  scf_type df
  mp2_type df
  cc_type df
  freeze_core true
}

energy('sapt0/aug-cc-pvdz')

--------------------------------------------------------------------------

  Memory set to   6.519 GiB by Python driver.

Scratch directory: /scratch/csargent/psi4.17562.33784/

Scratch directory: /scratch/csargent/psi4.17562.33784/

  //>>>>>>>>>>>>>>>>>>>>>>>>>>>>>>>>>>>//
  //              Dimer HF             //
  //<<<<<<<<<<<<<<<<<<<<<<<<<<<<<<<<<<<//


*** tstart() called on ds1
*** at Wed Sep  1 13:27:18 2021

   => Loading Basis Set <=

    Name: AUG-CC-PVDZ
    Role: ORBITAL
    Keyword: BASIS
    atoms 1-2, 9-10  entry O          line   254 file /theoryfs2/ds/csargent/miniconda3/envs/cle/share/psi4/basis/aug-cc-pvdz.gbs 
    atoms 3-6, 11-14 entry H          line    40 file /theoryfs2/ds/csargent/miniconda3/envs/cle/share/psi4/basis/aug-cc-pvdz.gbs 
    atoms 7-8, 15-16 entry C          line   182 file /theoryfs2/ds/csargent/miniconda3/envs/cle/share/psi4/basis/aug-cc-pvdz.gbs 


         ---------------------------------------------------------
                                   SCF
               by Justin Turney, Rob Parrish, Andy Simmonett
                          and Daniel G. A. Smith
                              RHF Reference
                        6 Threads,   6675 MiB Core
         ---------------------------------------------------------

  ==> Geometry <==

    Molecular point group: c1
    Full point group: C1

    Geometry (in Bohr), charge = 0, multiplicity = 1:

       Center              X                  Y                   Z               Mass       
    ------------   -----------------  -----------------  -----------------  -----------------
         O           -5.531022370000     2.939402900000     1.977626240000    15.994914619570
         O           -2.407088860000     0.908177340000     0.049059090000    15.994914619570
         H           -0.503048870000     1.375792050000     4.638809080000     1.007825032230
         H            0.000000000000     4.251042850000     3.090722380000     1.007825032230
         H           -2.389482150000     4.019167790000     5.401950410000     1.007825032230
         H           -3.747714110000     0.471479300000    -1.215575120000     1.007825032230
         C           -1.418597820000     2.985005000000     3.844051900000    12.000000000000
         C           -3.322637810000     2.286288140000     1.912214130000    12.000000000000
         O          -30.537581900000     6.803987320000   -14.375402240000    15.994914619570
         O          -33.661515410000     4.772761750000   -16.303969400000    15.994914619570
         H          -35.565555400000     5.240376460000   -11.714219410000     1.007825032230
         H          -36.068604270000     8.115627270000   -13.262306100000     1.007825032230
         H          -33.679122120000     7.883752200000   -10.951078080000     1.007825032230
         H          -32.320890160000     4.336063710000   -17.568603600000     1.007825032230
         C          -34.650006440000     6.849589410000   -12.508976590000    12.000000000000
         C          -32.745966460000     6.150872550000   -14.440814350000    12.000000000000

  Running in c1 symmetry.

  Rotational constants: A =      0.05239  B =      0.00075  C =      0.00074 [cm^-1]
  Rotational constants: A =   1570.66159  B =     22.43235  C =     22.14917 [MHz]
  Nuclear repulsion =  273.381006214286799

  Charge       = 0
  Multiplicity = 1
  Electrons    = 64
  Nalpha       = 32
  Nbeta        = 32

  ==> Algorithm <==

  SCF Algorithm Type is DF.
  DIIS enabled.
  MOM disabled.
  Fractional occupation disabled.
  Guess Type is SAD.
  Energy threshold   = 1.00e-10
  Density threshold  = 1.00e-10
  Integral threshold = 1.00e-12

  ==> Primary Basis <==

  Basis Set: AUG-CC-PVDZ
    Blend: AUG-CC-PVDZ
    Number of shells: 112
    Number of basis functions: 256
    Number of Cartesian functions: 272
    Spherical Harmonics?: true
    Max angular momentum: 2

   => Loading Basis Set <=

    Name: (AUG-CC-PVDZ AUX)
    Role: JKFIT
    Keyword: DF_BASIS_SCF
    atoms 1-2, 9-10  entry O          line   270 file /theoryfs2/ds/csargent/miniconda3/envs/cle/share/psi4/basis/aug-cc-pvdz-jkfit.gbs 
    atoms 3-6, 11-14 entry H          line    70 file /theoryfs2/ds/csargent/miniconda3/envs/cle/share/psi4/basis/aug-cc-pvdz-jkfit.gbs 
    atoms 7-8, 15-16 entry C          line   154 file /theoryfs2/ds/csargent/miniconda3/envs/cle/share/psi4/basis/aug-cc-pvdz-jkfit.gbs 

  ==> Integral Setup <==

  ==> DiskDFJK: Density-Fitted J/K Matrices <==

    J tasked:                  Yes
    K tasked:                  Yes
    wK tasked:                  No
    OpenMP threads:              6
    Integrals threads:           6
    Memory [MiB]:             5006
    Algorithm:                Core
    Integral Cache:           SAVE
    Schwarz Cutoff:          1E-12
    Fitting Condition:       1E-10

   => Auxiliary Basis Set <=

  Basis Set: (AUG-CC-PVDZ AUX)
    Blend: AUG-CC-PVDZ-JKFIT
    Number of shells: 320
    Number of basis functions: 944
    Number of Cartesian functions: 1088
    Spherical Harmonics?: true
    Max angular momentum: 3

  Minimum eigenvalue in the overlap matrix is 1.0277540352E-04.
  Reciprocal condition number of the overlap matrix is 9.6539108309E-06.
    Using symmetric orthogonalization.

  ==> Pre-Iterations <==

  SCF Guess: Superposition of Atomic Densities via on-the-fly atomic UHF (no occupation information).

   -------------------------
    Irrep   Nso     Nmo    
   -------------------------
     A        256     256 
   -------------------------
    Total     256     256
   -------------------------

  ==> Iterations <==

                           Total Energy        Delta E     RMS |[F,P]|

   @DF-RHF iter SAD:  -453.97985885917819   -4.53980e+02   0.00000e+00 
   @DF-RHF iter   1:  -455.36174925572220   -1.38189e+00   3.22752e-03 DIIS
   @DF-RHF iter   2:  -455.60175463088530   -2.40005e-01   1.87397e-03 DIIS
   @DF-RHF iter   3:  -455.68260372048212   -8.08491e-02   3.30514e-04 DIIS
   @DF-RHF iter   4:  -455.68707934568766   -4.47563e-03   1.46223e-04 DIIS
   @DF-RHF iter   5:  -455.68804212391001   -9.62778e-04   3.42627e-05 DIIS
   @DF-RHF iter   6:  -455.68811653358239   -7.44097e-05   1.66648e-05 DIIS
   @DF-RHF iter   7:  -455.68813613271254   -1.95991e-05   5.43804e-06 DIIS
   @DF-RHF iter   8:  -455.68813929860517   -3.16589e-06   1.43697e-06 DIIS
   @DF-RHF iter   9:  -455.68813953204193   -2.33437e-07   3.01114e-07 DIIS
   @DF-RHF iter  10:  -455.68813953967890   -7.63697e-09   7.94193e-08 DIIS
   @DF-RHF iter  11:  -455.68813954008652   -4.07624e-10   2.54791e-08 DIIS
   @DF-RHF iter  12:  -455.68813954013063   -4.41105e-11   6.04394e-09 DIIS
   @DF-RHF iter  13:  -455.68813954013297   -2.33058e-12   1.33227e-09 DIIS
   @DF-RHF iter  14:  -455.68813954013399   -1.02318e-12   6.09626e-10 DIIS
   @DF-RHF iter  15:  -455.68813954013331    6.82121e-13   2.09124e-10 DIIS
   @DF-RHF iter  16:  -455.68813954013405   -7.38964e-13   5.77277e-11 DIIS
  Energy and wave function converged.


  ==> Post-Iterations <==

    Orbital Energies [Eh]
    ---------------------

    Doubly Occupied:                                                      

       1A    -20.628882     2A    -20.628719     3A    -20.552154  
       4A    -20.552037     5A    -11.395462     6A    -11.395354  
       7A    -11.250323     8A    -11.250311     9A     -1.475241  
      10A     -1.475094    11A     -1.356847    12A     -1.356718  
      13A     -1.032352    14A     -1.032307    15A     -0.837320  
      16A     -0.837197    17A     -0.702428    18A     -0.702298  
      19A     -0.687832    20A     -0.687740    21A     -0.657124  
      22A     -0.657020    23A     -0.575905    24A     -0.575801  
      25A     -0.569069    26A     -0.569002    27A     -0.560744  
      28A     -0.560726    29A     -0.474699    30A     -0.474567  
      31A     -0.451781    32A     -0.451670  

    Virtual:                                                              

      33A      0.032758    34A      0.032900    35A      0.046167  
      36A      0.046367    37A      0.055656    38A      0.055670  
      39A      0.065250    40A      0.065480    41A      0.099411  
      42A      0.099469    43A      0.117940    44A      0.118052  
      45A      0.118456    46A      0.118638    47A      0.141181  
      48A      0.141279    49A      0.152562    50A      0.152609  
      51A      0.156994    52A      0.157048    53A      0.165220  
      54A      0.165279    55A      0.171976    56A      0.172041  
      57A      0.196930    58A      0.197011    59A      0.209789  
      60A      0.210015    61A      0.233968    62A      0.234114  
      63A      0.235612    64A      0.235683    65A      0.271523  
      66A      0.271544    67A      0.290988    68A      0.291106  
      69A      0.296420    70A      0.296477    71A      0.320422  
      72A      0.320610    73A      0.323447    74A      0.323579  
      75A      0.347909    76A      0.347976    77A      0.371314  
      78A      0.371421    79A      0.379484    80A      0.379549  
      81A      0.394768    82A      0.394846    83A      0.402066  
      84A      0.402149    85A      0.427298    86A      0.427359  
      87A      0.438863    88A      0.438899    89A      0.442623  
      90A      0.442674    91A      0.476165    92A      0.476311  
      93A      0.492981    94A      0.493032    95A      0.525413  
      96A      0.525426    97A      0.537948    98A      0.537991  
      99A      0.554110   100A      0.554172   101A      0.570407  
     102A      0.570415   103A      0.584444   104A      0.584466  
     105A      0.602698   106A      0.602837   107A      0.618860  
     108A      0.618941   109A      0.640932   110A      0.641017  
     111A      0.649938   112A      0.649999   113A      0.667326  
     114A      0.667393   115A      0.684860   116A      0.684921  
     117A      0.697838   118A      0.697908   119A      0.704221  
     120A      0.704248   121A      0.733926   122A      0.733992  
     123A      0.743393   124A      0.743460   125A      0.799116  
     126A      0.799133   127A      0.854210   128A      0.854306  
     129A      0.877473   130A      0.877598   131A      0.913046  
     132A      0.913146   133A      0.950326   134A      0.950421  
     135A      0.955000   136A      0.955103   137A      0.983772  
     138A      0.983879   139A      1.042169   140A      1.042282  
     141A      1.089471   142A      1.089504   143A      1.102481  
     144A      1.102526   145A      1.119022   146A      1.119067  
     147A      1.158134   148A      1.158276   149A      1.172756  
     150A      1.172879   151A      1.176991   152A      1.177084  
     153A      1.236635   154A      1.236753   155A      1.272826  
     156A      1.272957   157A      1.319887   158A      1.320000  
     159A      1.358836   160A      1.358940   161A      1.391102  
     162A      1.391196   163A      1.413101   164A      1.413156  
     165A      1.463431   166A      1.463578   167A      1.468592  
     168A      1.468749   169A      1.546666   170A      1.546705  
     171A      1.635676   172A      1.635783   173A      1.650543  
     174A      1.650643   175A      1.715734   176A      1.715826  
     177A      1.756442   178A      1.756514   179A      1.773536  
     180A      1.773566   181A      1.848691   182A      1.848786  
     183A      1.866141   184A      1.866195   185A      1.884460  
     186A      1.884472   187A      1.967067   188A      1.967180  
     189A      1.980092   190A      1.980206   191A      2.026944  
     192A      2.027004   193A      2.038268   194A      2.038375  
     195A      2.123481   196A      2.123582   197A      2.172674  
     198A      2.172757   199A      2.193774   200A      2.193849  
     201A      2.245425   202A      2.245459   203A      2.254276  
     204A      2.254355   205A      2.273000   206A      2.273094  
     207A      2.312877   208A      2.312964   209A      2.380243  
     210A      2.380298   211A      2.430948   212A      2.431063  
     213A      2.439301   214A      2.439360   215A      2.536945  
     216A      2.537007   217A      2.624225   218A      2.624313  
     219A      2.652964   220A      2.652982   221A      2.784332  
     222A      2.784381   223A      2.834283   224A      2.834357  
     225A      2.886763   226A      2.886813   227A      2.974907  
     228A      2.975010   229A      3.002237   230A      3.002294  
     231A      3.016951   232A      3.017031   233A      3.179559  
     234A      3.179671   235A      3.346764   236A      3.346877  
     237A      3.667305   238A      3.667460   239A      3.691022  
     240A      3.691181   241A      3.737061   242A      3.737204  
     243A      3.760313   244A      3.760439   245A      3.790960  
     246A      3.791095   247A      3.805899   248A      3.806029  
     249A      3.901040   250A      3.901183   251A      4.051006  
     252A      4.051136   253A      4.142982   254A      4.143118  
     255A      4.310550   256A      4.310708  

    Final Occupation by Irrep:
              A 
    DOCC [    32 ]

  @DF-RHF Final Energy:  -455.68813954013405

   => Energetics <=

    Nuclear Repulsion Energy =            273.3810062142867991
    One-Electron Energy =               -1165.3088443632691451
    Two-Electron Energy =                 436.2396986088483004
    Total Energy =                       -455.6881395401340455

Computation Completed


Properties will be evaluated at   0.000000,   0.000000,   0.000000 [a0]

Properties computed using the SCF density matrix

  Nuclear Dipole Moment: [e a0]
     X: -1154.1953      Y:   268.7185      Z:  -397.9629

  Electronic Dipole Moment: [e a0]
     X:  1154.1950      Y:  -269.2835      Z:   397.7966

  Dipole Moment: [e a0]
     X:    -0.0004      Y:    -0.5651      Z:    -0.1663     Total:     0.5890

  Dipole Moment: [D]
     X:    -0.0010      Y:    -1.4363      Z:    -0.4227     Total:     1.4972


*** tstop() called on ds1 at Wed Sep  1 13:27:21 2021
Module time:
	user time   =      14.56 seconds =       0.24 minutes
	system time =       0.40 seconds =       0.01 minutes
	total time  =          3 seconds =       0.05 minutes
Total time:
	user time   =      14.56 seconds =       0.24 minutes
	system time =       0.40 seconds =       0.01 minutes
	total time  =          3 seconds =       0.05 minutes

  //>>>>>>>>>>>>>>>>>>>>>>>>>>>>>>>>>>>//
  //            Monomer A HF           //
  //<<<<<<<<<<<<<<<<<<<<<<<<<<<<<<<<<<<//


*** tstart() called on ds1
*** at Wed Sep  1 13:27:21 2021

   => Loading Basis Set <=

    Name: AUG-CC-PVDZ
    Role: ORBITAL
    Keyword: BASIS
    atoms 1-2, 9-10  entry O          line   254 file /theoryfs2/ds/csargent/miniconda3/envs/cle/share/psi4/basis/aug-cc-pvdz.gbs 
    atoms 3-6, 11-14 entry H          line    40 file /theoryfs2/ds/csargent/miniconda3/envs/cle/share/psi4/basis/aug-cc-pvdz.gbs 
    atoms 7-8, 15-16 entry C          line   182 file /theoryfs2/ds/csargent/miniconda3/envs/cle/share/psi4/basis/aug-cc-pvdz.gbs 


         ---------------------------------------------------------
                                   SCF
               by Justin Turney, Rob Parrish, Andy Simmonett
                          and Daniel G. A. Smith
                              RHF Reference
                        6 Threads,   6675 MiB Core
         ---------------------------------------------------------

  ==> Geometry <==

    Molecular point group: c1
    Full point group: C1

    Geometry (in Bohr), charge = 0, multiplicity = 1:

       Center              X                  Y                   Z               Mass       
    ------------   -----------------  -----------------  -----------------  -----------------
         O           -5.531022370000     2.939402900000     1.977626240000    15.994914619570
         O           -2.407088860000     0.908177340000     0.049059090000    15.994914619570
         H           -0.503048870000     1.375792050000     4.638809080000     1.007825032230
         H            0.000000000000     4.251042850000     3.090722380000     1.007825032230
         H           -2.389482150000     4.019167790000     5.401950410000     1.007825032230
         H           -3.747714110000     0.471479300000    -1.215575120000     1.007825032230
         C           -1.418597820000     2.985005000000     3.844051900000    12.000000000000
         C           -3.322637810000     2.286288140000     1.912214130000    12.000000000000
      Gh(O)         -30.537581900000     6.803987320000   -14.375402240000    15.994914619570
      Gh(O)         -33.661515410000     4.772761750000   -16.303969400000    15.994914619570
      Gh(H)         -35.565555400000     5.240376460000   -11.714219410000     1.007825032230
      Gh(H)         -36.068604270000     8.115627270000   -13.262306100000     1.007825032230
      Gh(H)         -33.679122120000     7.883752200000   -10.951078080000     1.007825032230
      Gh(H)         -32.320890160000     4.336063710000   -17.568603600000     1.007825032230
      Gh(C)         -34.650006440000     6.849589410000   -12.508976590000    12.000000000000
      Gh(C)         -32.745966460000     6.150872550000   -14.440814350000    12.000000000000

  Running in c1 symmetry.

  Rotational constants: A =      0.05239  B =      0.00075  C =      0.00074 [cm^-1]
  Rotational constants: A =   1570.66159  B =     22.43235  C =     22.14917 [MHz]
  Nuclear repulsion =  121.748430210971620

  Charge       = 0
  Multiplicity = 1
  Electrons    = 32
  Nalpha       = 16
  Nbeta        = 16

  ==> Algorithm <==

  SCF Algorithm Type is DF.
  DIIS enabled.
  MOM disabled.
  Fractional occupation disabled.
  Guess Type is SAD.
  Energy threshold   = 1.00e-10
  Density threshold  = 1.00e-10
  Integral threshold = 1.00e-12

  ==> Primary Basis <==

  Basis Set: AUG-CC-PVDZ
    Blend: AUG-CC-PVDZ
    Number of shells: 112
    Number of basis functions: 256
    Number of Cartesian functions: 272
    Spherical Harmonics?: true
    Max angular momentum: 2

   => Loading Basis Set <=

    Name: (AUG-CC-PVDZ AUX)
    Role: JKFIT
    Keyword: DF_BASIS_SCF
    atoms 1-2, 9-10  entry O          line   270 file /theoryfs2/ds/csargent/miniconda3/envs/cle/share/psi4/basis/aug-cc-pvdz-jkfit.gbs 
    atoms 3-6, 11-14 entry H          line    70 file /theoryfs2/ds/csargent/miniconda3/envs/cle/share/psi4/basis/aug-cc-pvdz-jkfit.gbs 
    atoms 7-8, 15-16 entry C          line   154 file /theoryfs2/ds/csargent/miniconda3/envs/cle/share/psi4/basis/aug-cc-pvdz-jkfit.gbs 

  ==> Integral Setup <==

  ==> DiskDFJK: Density-Fitted J/K Matrices <==

    J tasked:                  Yes
    K tasked:                  Yes
    wK tasked:                  No
    OpenMP threads:              6
    Integrals threads:           6
    Memory [MiB]:             5006
    Algorithm:                Core
    Integral Cache:           LOAD
    Schwarz Cutoff:          1E-12
    Fitting Condition:       1E-10

   => Auxiliary Basis Set <=

  Basis Set: (AUG-CC-PVDZ AUX)
    Blend: AUG-CC-PVDZ-JKFIT
    Number of shells: 320
    Number of basis functions: 944
    Number of Cartesian functions: 1088
    Spherical Harmonics?: true
    Max angular momentum: 3

  Minimum eigenvalue in the overlap matrix is 1.0277540352E-04.
  Reciprocal condition number of the overlap matrix is 9.6539108309E-06.
    Using symmetric orthogonalization.

  ==> Pre-Iterations <==

  SCF Guess: Superposition of Atomic Densities via on-the-fly atomic UHF (no occupation information).

   -------------------------
    Irrep   Nso     Nmo    
   -------------------------
     A        256     256 
   -------------------------
    Total     256     256
   -------------------------

  ==> Iterations <==

                           Total Energy        Delta E     RMS |[F,P]|

   @DF-RHF iter SAD:  -226.98992942892420   -2.26990e+02   0.00000e+00 
   @DF-RHF iter   1:  -227.68091168238186   -6.90982e-01   2.28211e-03 DIIS
   @DF-RHF iter   2:  -227.80091445529419   -1.20003e-01   1.32478e-03 DIIS
   @DF-RHF iter   3:  -227.84131987439636   -4.04054e-02   2.33581e-04 DIIS
   @DF-RHF iter   4:  -227.84355633793476   -2.23646e-03   1.03339e-04 DIIS
   @DF-RHF iter   5:  -227.84403723893689   -4.80901e-04   2.42136e-05 DIIS
   @DF-RHF iter   6:  -227.84407440693337   -3.71680e-05   1.17797e-05 DIIS
   @DF-RHF iter   7:  -227.84408419505942   -9.78813e-06   3.84272e-06 DIIS
   @DF-RHF iter   8:  -227.84408577664587   -1.58159e-06   1.01577e-06 DIIS
   @DF-RHF iter   9:  -227.84408589329641   -1.16651e-07   2.12953e-07 DIIS
   @DF-RHF iter  10:  -227.84408589711705   -3.82065e-09   5.61608e-08 DIIS
   @DF-RHF iter  11:  -227.84408589732041   -2.03357e-10   1.80147e-08 DIIS
   @DF-RHF iter  12:  -227.84408589734269   -2.22826e-11   4.26466e-09 DIIS
   @DF-RHF iter  13:  -227.84408589734383   -1.13687e-12   8.93569e-10 DIIS
   @DF-RHF iter  14:  -227.84408589734383    0.00000e+00   2.86710e-10 DIIS
   @DF-RHF iter  15:  -227.84408589734392   -8.52651e-14   1.08058e-10 DIIS
   @DF-RHF iter  16:  -227.84408589734380    1.13687e-13   2.86095e-11 DIIS
  Energy and wave function converged.


  ==> Post-Iterations <==

    Orbital Energies [Eh]
    ---------------------

    Doubly Occupied:                                                      

       1A    -20.629476     2A    -20.552804     3A    -11.396108  
       4A    -11.250979     5A     -1.475853     6A     -1.357486  
       7A     -1.032999     8A     -0.837930     9A     -0.703065  
      10A     -0.688465    11A     -0.657749    12A     -0.576538  
      13A     -0.569697    14A     -0.561403    15A     -0.475343  
      16A     -0.452434  

    Virtual:                                                              

      17A      0.025387    18A      0.032214    19A      0.045627  
      20A      0.047427    21A      0.055084    22A      0.056123  
      23A      0.057238    24A      0.064645    25A      0.086057  
      26A      0.098769    27A      0.105175    28A      0.112813  
      29A      0.117323    30A      0.117857    31A      0.118030  
      32A      0.140545    33A      0.141042    34A      0.142019  
      35A      0.147533    36A      0.151976    37A      0.156356  
      38A      0.164577    39A      0.171320    40A      0.176990  
      41A      0.196303    42A      0.206223    43A      0.209237  
      44A      0.215211    45A      0.226874    46A      0.233376  
      47A      0.234963    48A      0.244730    49A      0.260933  
      50A      0.265423    51A      0.270849    52A      0.277358  
      53A      0.286089    54A      0.290295    55A      0.295802  
      56A      0.319834    57A      0.322781    58A      0.332913  
      59A      0.336880    60A      0.347275    61A      0.370159  
      62A      0.370652    63A      0.378870    64A      0.394119  
      65A      0.399947    66A      0.401429    67A      0.410423  
      68A      0.426690    69A      0.431797    70A      0.438218  
      71A      0.438547    72A      0.442006    73A      0.461025  
      74A      0.475555    75A      0.490860    76A      0.492357  
      77A      0.497914    78A      0.517169    79A      0.524763  
      80A      0.537262    81A      0.542351    82A      0.544241  
      83A      0.553487    84A      0.560270    85A      0.569740  
      86A      0.583791    87A      0.587445    88A      0.602101  
      89A      0.616961    90A      0.618231    91A      0.636903  
      92A      0.637720    93A      0.640311    94A      0.649301  
      95A      0.666705    96A      0.675771    97A      0.684210  
      98A      0.690616    99A      0.697190   100A      0.701480  
     101A      0.703571   102A      0.728773   103A      0.733289  
     104A      0.742748   105A      0.754318   106A      0.760991  
     107A      0.787792   108A      0.798460   109A      0.816433  
     110A      0.820777   111A      0.848889   112A      0.853581  
     113A      0.876833   114A      0.888877   115A      0.897034  
     116A      0.912403   117A      0.948283   118A      0.949697  
     119A      0.954375   120A      0.958765   121A      0.976563  
     122A      0.983144   123A      1.038624   124A      1.041547  
     125A      1.045844   126A      1.088819   127A      1.101839  
     128A      1.107059   129A      1.118367   130A      1.157520  
     131A      1.163216   132A      1.172141   133A      1.176359  
     134A      1.191504   135A      1.236033   136A      1.261294  
     137A      1.270887   138A      1.272187   139A      1.319230  
     140A      1.330206   141A      1.358181   142A      1.384754  
     143A      1.390440   144A      1.396874   145A      1.412451  
     146A      1.435349   147A      1.458964   148A      1.462795  
     149A      1.467976   150A      1.468278   151A      1.470149  
     152A      1.538179   153A      1.546014   154A      1.569941  
     155A      1.635048   156A      1.649915   157A      1.684334  
     158A      1.715101   159A      1.718137   160A      1.755800  
     161A      1.772884   162A      1.800632   163A      1.848039  
     164A      1.865503   165A      1.883560   166A      1.883811  
     167A      1.937705   168A      1.966454   169A      1.979453  
     170A      2.026298   171A      2.037642   172A      2.071467  
     173A      2.122848   174A      2.172049   175A      2.193137  
     176A      2.244771   177A      2.251622   178A      2.253643  
     179A      2.265630   180A      2.272354   181A      2.274574  
     182A      2.303675   183A      2.312246   184A      2.337305  
     185A      2.339806   186A      2.362796   187A      2.377216  
     188A      2.379604   189A      2.430330   190A      2.438663  
     191A      2.467825   192A      2.506471   193A      2.536303  
     194A      2.586676   195A      2.623585   196A      2.652307  
     197A      2.665369   198A      2.699015   199A      2.755059  
     200A      2.783681   201A      2.786926   202A      2.824936  
     203A      2.833647   204A      2.886121   205A      2.916671  
     206A      2.974291   207A      3.001602   208A      3.016316  
     209A      3.043437   210A      3.178935   211A      3.183177  
     212A      3.279332   213A      3.311447   214A      3.346124  
     215A      3.357634   216A      3.432264   217A      3.487480  
     218A      3.663542   219A      3.666705   220A      3.690423  
     221A      3.736441   222A      3.740814   223A      3.759662  
     224A      3.790324   225A      3.805251   226A      3.900417  
     227A      4.026911   228A      4.050368   229A      4.142340  
     230A      4.154380   231A      4.309953   232A      4.505766  
     233A      4.617660   234A      4.725730   235A      4.926730  
     236A      4.970575   237A      4.978771   238A      5.002516  
     239A      5.017646   240A      5.034497   241A      5.053298  
     242A      5.222831   243A      5.245018   244A      5.615956  
     245A      5.661997   246A      5.792115   247A      5.869888  
     248A      6.053631   249A      6.229716   250A      6.521546  
     251A      6.791058   252A      7.093789   253A     18.347077  
     254A     18.941577   255A     33.526414   256A     33.564333  

    Final Occupation by Irrep:
              A 
    DOCC [    16 ]

  @DF-RHF Final Energy:  -227.84408589734380

   => Energetics <=

    Nuclear Repulsion Energy =            121.7484302109716197
    One-Electron Energy =                -552.7483714471046596
    Two-Electron Energy =                 203.1558553387892516
    Total Energy =                       -227.8440858973438026

Computation Completed


Properties will be evaluated at   0.000000,   0.000000,   0.000000 [a0]

Properties computed using the SCF density matrix

  Nuclear Dipole Moment: [e a0]
     X:   -98.5925      Y:    72.5259      Z:    62.6670

  Electronic Dipole Moment: [e a0]
     X:    99.4206      Y:   -72.8088      Z:   -62.7502

  Dipole Moment: [e a0]
     X:     0.8281      Y:    -0.2829      Z:    -0.0832     Total:     0.8790

  Dipole Moment: [D]
     X:     2.1048      Y:    -0.7191      Z:    -0.2116     Total:     2.2342


*** tstop() called on ds1 at Wed Sep  1 13:27:23 2021
Module time:
	user time   =      10.72 seconds =       0.18 minutes
	system time =       0.21 seconds =       0.00 minutes
	total time  =          2 seconds =       0.03 minutes
Total time:
	user time   =      25.47 seconds =       0.42 minutes
	system time =       0.61 seconds =       0.01 minutes
	total time  =          5 seconds =       0.08 minutes

  //>>>>>>>>>>>>>>>>>>>>>>>>>>>>>>>>>>>//
  //            Monomer B HF           //
  //<<<<<<<<<<<<<<<<<<<<<<<<<<<<<<<<<<<//


*** tstart() called on ds1
*** at Wed Sep  1 13:27:24 2021

   => Loading Basis Set <=

    Name: AUG-CC-PVDZ
    Role: ORBITAL
    Keyword: BASIS
    atoms 1-2, 9-10  entry O          line   254 file /theoryfs2/ds/csargent/miniconda3/envs/cle/share/psi4/basis/aug-cc-pvdz.gbs 
    atoms 3-6, 11-14 entry H          line    40 file /theoryfs2/ds/csargent/miniconda3/envs/cle/share/psi4/basis/aug-cc-pvdz.gbs 
    atoms 7-8, 15-16 entry C          line   182 file /theoryfs2/ds/csargent/miniconda3/envs/cle/share/psi4/basis/aug-cc-pvdz.gbs 


         ---------------------------------------------------------
                                   SCF
               by Justin Turney, Rob Parrish, Andy Simmonett
                          and Daniel G. A. Smith
                              RHF Reference
                        6 Threads,   6675 MiB Core
         ---------------------------------------------------------

  ==> Geometry <==

    Molecular point group: c1
    Full point group: C1

    Geometry (in Bohr), charge = 0, multiplicity = 1:

       Center              X                  Y                   Z               Mass       
    ------------   -----------------  -----------------  -----------------  -----------------
      Gh(O)          -5.531022370000     2.939402900000     1.977626240000    15.994914619570
      Gh(O)          -2.407088860000     0.908177340000     0.049059090000    15.994914619570
      Gh(H)          -0.503048870000     1.375792050000     4.638809080000     1.007825032230
      Gh(H)           0.000000000000     4.251042850000     3.090722380000     1.007825032230
      Gh(H)          -2.389482150000     4.019167790000     5.401950410000     1.007825032230
      Gh(H)          -3.747714110000     0.471479300000    -1.215575120000     1.007825032230
      Gh(C)          -1.418597820000     2.985005000000     3.844051900000    12.000000000000
      Gh(C)          -3.322637810000     2.286288140000     1.912214130000    12.000000000000
         O          -30.537581900000     6.803987320000   -14.375402240000    15.994914619570
         O          -33.661515410000     4.772761750000   -16.303969400000    15.994914619570
         H          -35.565555400000     5.240376460000   -11.714219410000     1.007825032230
         H          -36.068604270000     8.115627270000   -13.262306100000     1.007825032230
         H          -33.679122120000     7.883752200000   -10.951078080000     1.007825032230
         H          -32.320890160000     4.336063710000   -17.568603600000     1.007825032230
         C          -34.650006440000     6.849589410000   -12.508976590000    12.000000000000
         C          -32.745966460000     6.150872550000   -14.440814350000    12.000000000000

  Running in c1 symmetry.

  Rotational constants: A =      0.05239  B =      0.00075  C =      0.00074 [cm^-1]
  Rotational constants: A =   1570.66159  B =     22.43235  C =     22.14917 [MHz]
  Nuclear repulsion =  121.748430197701850

  Charge       = 0
  Multiplicity = 1
  Electrons    = 32
  Nalpha       = 16
  Nbeta        = 16

  ==> Algorithm <==

  SCF Algorithm Type is DF.
  DIIS enabled.
  MOM disabled.
  Fractional occupation disabled.
  Guess Type is SAD.
  Energy threshold   = 1.00e-10
  Density threshold  = 1.00e-10
  Integral threshold = 1.00e-12

  ==> Primary Basis <==

  Basis Set: AUG-CC-PVDZ
    Blend: AUG-CC-PVDZ
    Number of shells: 112
    Number of basis functions: 256
    Number of Cartesian functions: 272
    Spherical Harmonics?: true
    Max angular momentum: 2

   => Loading Basis Set <=

    Name: (AUG-CC-PVDZ AUX)
    Role: JKFIT
    Keyword: DF_BASIS_SCF
    atoms 1-2, 9-10  entry O          line   270 file /theoryfs2/ds/csargent/miniconda3/envs/cle/share/psi4/basis/aug-cc-pvdz-jkfit.gbs 
    atoms 3-6, 11-14 entry H          line    70 file /theoryfs2/ds/csargent/miniconda3/envs/cle/share/psi4/basis/aug-cc-pvdz-jkfit.gbs 
    atoms 7-8, 15-16 entry C          line   154 file /theoryfs2/ds/csargent/miniconda3/envs/cle/share/psi4/basis/aug-cc-pvdz-jkfit.gbs 

  ==> Integral Setup <==

  ==> DiskDFJK: Density-Fitted J/K Matrices <==

    J tasked:                  Yes
    K tasked:                  Yes
    wK tasked:                  No
    OpenMP threads:              6
    Integrals threads:           6
    Memory [MiB]:             5006
    Algorithm:                Core
    Integral Cache:           LOAD
    Schwarz Cutoff:          1E-12
    Fitting Condition:       1E-10

   => Auxiliary Basis Set <=

  Basis Set: (AUG-CC-PVDZ AUX)
    Blend: AUG-CC-PVDZ-JKFIT
    Number of shells: 320
    Number of basis functions: 944
    Number of Cartesian functions: 1088
    Spherical Harmonics?: true
    Max angular momentum: 3

  Minimum eigenvalue in the overlap matrix is 1.0277540352E-04.
  Reciprocal condition number of the overlap matrix is 9.6539108309E-06.
    Using symmetric orthogonalization.

  ==> Pre-Iterations <==

  SCF Guess: Superposition of Atomic Densities via on-the-fly atomic UHF (no occupation information).

   -------------------------
    Irrep   Nso     Nmo    
   -------------------------
     A        256     256 
   -------------------------
    Total     256     256
   -------------------------

  ==> Iterations <==

                           Total Energy        Delta E     RMS |[F,P]|

   @DF-RHF iter SAD:  -226.98992942798839   -2.26990e+02   0.00000e+00 
   @DF-RHF iter   1:  -227.68091168040368   -6.90982e-01   2.28211e-03 DIIS
   @DF-RHF iter   2:  -227.80091445347736   -1.20003e-01   1.32478e-03 DIIS
   @DF-RHF iter   3:  -227.84131987278280   -4.04054e-02   2.33581e-04 DIIS
   @DF-RHF iter   4:  -227.84355633632111   -2.23646e-03   1.03339e-04 DIIS
   @DF-RHF iter   5:  -227.84403723732413   -4.80901e-04   2.42136e-05 DIIS
   @DF-RHF iter   6:  -227.84407440532081   -3.71680e-05   1.17797e-05 DIIS
   @DF-RHF iter   7:  -227.84408419344692   -9.78813e-06   3.84272e-06 DIIS
   @DF-RHF iter   8:  -227.84408577503356   -1.58159e-06   1.01577e-06 DIIS
   @DF-RHF iter   9:  -227.84408589168345   -1.16650e-07   2.12954e-07 DIIS
   @DF-RHF iter  10:  -227.84408589550432   -3.82087e-09   5.61608e-08 DIIS
   @DF-RHF iter  11:  -227.84408589570805   -2.03727e-10   1.80147e-08 DIIS
   @DF-RHF iter  12:  -227.84408589572973   -2.16858e-11   4.26466e-09 DIIS
   @DF-RHF iter  13:  -227.84408589573138   -1.64846e-12   8.93569e-10 DIIS
   @DF-RHF iter  14:  -227.84408589573141   -2.84217e-14   2.86711e-10 DIIS
   @DF-RHF iter  15:  -227.84408589573138    2.84217e-14   1.08059e-10 DIIS
   @DF-RHF iter  16:  -227.84408589573155   -1.70530e-13   2.86096e-11 DIIS
  Energy and wave function converged.


  ==> Post-Iterations <==

    Orbital Energies [Eh]
    ---------------------

    Doubly Occupied:                                                      

       1A    -20.629476     2A    -20.552804     3A    -11.396108  
       4A    -11.250979     5A     -1.475853     6A     -1.357486  
       7A     -1.032999     8A     -0.837930     9A     -0.703065  
      10A     -0.688465    11A     -0.657749    12A     -0.576538  
      13A     -0.569697    14A     -0.561403    15A     -0.475343  
      16A     -0.452434  

    Virtual:                                                              

      17A      0.025456    18A      0.032214    19A      0.045627  
      20A      0.047604    21A      0.055084    22A      0.056141  
      23A      0.057181    24A      0.064645    25A      0.086171  
      26A      0.098769    27A      0.105319    28A      0.112911  
      29A      0.117323    30A      0.117857    31A      0.117956  
      32A      0.140545    33A      0.141100    34A      0.142059  
      35A      0.147486    36A      0.151976    37A      0.156356  
      38A      0.164577    39A      0.171320    40A      0.177131  
      41A      0.196303    42A      0.206376    43A      0.209237  
      44A      0.215370    45A      0.227022    46A      0.233376  
      47A      0.234963    48A      0.244840    49A      0.261074  
      50A      0.265575    51A      0.270849    52A      0.277482  
      53A      0.286203    54A      0.290295    55A      0.295802  
      56A      0.319834    57A      0.322781    58A      0.332937  
      59A      0.336862    60A      0.347275    61A      0.370146  
      62A      0.370652    63A      0.378870    64A      0.394119  
      65A      0.399936    66A      0.401429    67A      0.410434  
      68A      0.426690    69A      0.431850    70A      0.438218  
      71A      0.438583    72A      0.442006    73A      0.461243  
      74A      0.475555    75A      0.490972    76A      0.492357  
      77A      0.498040    78A      0.517278    79A      0.524763  
      80A      0.537262    81A      0.542533    82A      0.544250  
      83A      0.553487    84A      0.560334    85A      0.569740  
      86A      0.583791    87A      0.587478    88A      0.602101  
      89A      0.617079    90A      0.618231    91A      0.636970  
      92A      0.637807    93A      0.640311    94A      0.649301  
      95A      0.666705    96A      0.675862    97A      0.684210  
      98A      0.690650    99A      0.697190   100A      0.701511  
     101A      0.703571   102A      0.728772   103A      0.733289  
     104A      0.742748   105A      0.754368   106A      0.760981  
     107A      0.787842   108A      0.798460   109A      0.816436  
     110A      0.820777   111A      0.848912   112A      0.853581  
     113A      0.876833   114A      0.888884   115A      0.897127  
     116A      0.912403   117A      0.948345   118A      0.949697  
     119A      0.954375   120A      0.958828   121A      0.976645  
     122A      0.983144   123A      1.038732   124A      1.041547  
     125A      1.045957   126A      1.088819   127A      1.101839  
     128A      1.107154   129A      1.118367   130A      1.157520  
     131A      1.163352   132A      1.172141   133A      1.176359  
     134A      1.191646   135A      1.236033   136A      1.261456  
     137A      1.271050   138A      1.272187   139A      1.319230  
     140A      1.330347   141A      1.358181   142A      1.384908  
     143A      1.390440   144A      1.397038   145A      1.412451  
     146A      1.435482   147A      1.459145   148A      1.462795  
     149A      1.467976   150A      1.468432   151A      1.470304  
     152A      1.538323   153A      1.546014   154A      1.570085  
     155A      1.635048   156A      1.649915   157A      1.684467  
     158A      1.715101   159A      1.718267   160A      1.755800  
     161A      1.772884   162A      1.800778   163A      1.848039  
     164A      1.865503   165A      1.883523   166A      1.883811  
     167A      1.937710   168A      1.966454   169A      1.979453  
     170A      2.026298   171A      2.037642   172A      2.071479  
     173A      2.122848   174A      2.172049   175A      2.193137  
     176A      2.244771   177A      2.251588   178A      2.253643  
     179A      2.265618   180A      2.272354   181A      2.274731  
     182A      2.303680   183A      2.312246   184A      2.337279  
     185A      2.339792   186A      2.362844   187A      2.377303  
     188A      2.379604   189A      2.430330   190A      2.438663  
     191A      2.467940   192A      2.506653   193A      2.536303  
     194A      2.586755   195A      2.623585   196A      2.652307  
     197A      2.665468   198A      2.699041   199A      2.755070  
     200A      2.783681   201A      2.786937   202A      2.824952  
     203A      2.833647   204A      2.886121   205A      2.916777  
     206A      2.974291   207A      3.001602   208A      3.016316  
     209A      3.043492   210A      3.178935   211A      3.183211  
     212A      3.279351   213A      3.311488   214A      3.346124  
     215A      3.357666   216A      3.432334   217A      3.487482  
     218A      3.663617   219A      3.666705   220A      3.690423  
     221A      3.736441   222A      3.740968   223A      3.759662  
     224A      3.790324   225A      3.805251   226A      3.900417  
     227A      4.027023   228A      4.050368   229A      4.142340  
     230A      4.154581   231A      4.309953   232A      4.505909  
     233A      4.617811   234A      4.725772   235A      4.926886  
     236A      4.970715   237A      4.978942   238A      5.002667  
     239A      5.017802   240A      5.034662   241A      5.053316  
     242A      5.222923   243A      5.245069   244A      5.616142  
     245A      5.662162   246A      5.792291   247A      5.870027  
     248A      6.053780   249A      6.229856   250A      6.521727  
     251A      6.791232   252A      7.093946   253A     18.347115  
     254A     18.941631   255A     33.526559   256A     33.564522  

    Final Occupation by Irrep:
              A 
    DOCC [    16 ]

  @DF-RHF Final Energy:  -227.84408589573155

   => Energetics <=

    Nuclear Repulsion Energy =            121.7484301977018504
    One-Electron Energy =                -552.7483714127906751
    Two-Electron Energy =                 203.1558553193572720
    Total Energy =                       -227.8440858957315527

Computation Completed


Properties will be evaluated at   0.000000,   0.000000,   0.000000 [a0]

Properties computed using the SCF density matrix

  Nuclear Dipole Moment: [e a0]
     X: -1055.6028      Y:   196.1926      Z:  -460.6299

  Electronic Dipole Moment: [e a0]
     X:  1054.7747      Y:  -196.4755      Z:   460.5467

  Dipole Moment: [e a0]
     X:    -0.8281      Y:    -0.2829      Z:    -0.0832     Total:     0.8790

  Dipole Moment: [D]
     X:    -2.1048      Y:    -0.7191      Z:    -0.2116     Total:     2.2342


*** tstop() called on ds1 at Wed Sep  1 13:27:26 2021
Module time:
	user time   =      10.75 seconds =       0.18 minutes
	system time =       0.16 seconds =       0.00 minutes
	total time  =          2 seconds =       0.03 minutes
Total time:
	user time   =      36.39 seconds =       0.61 minutes
	system time =       0.78 seconds =       0.01 minutes
	total time  =          8 seconds =       0.13 minutes
  Constructing Basis Sets for SAPT...

   => Loading Basis Set <=

    Name: (AUG-CC-PVDZ AUX)
    Role: RIFIT
    Keyword: DF_BASIS_SAPT
    atoms 1-2, 9-10  entry O          line   204 file /theoryfs2/ds/csargent/miniconda3/envs/cle/share/psi4/basis/aug-cc-pvdz-ri.gbs 
    atoms 3-6, 11-14 entry H          line    30 file /theoryfs2/ds/csargent/miniconda3/envs/cle/share/psi4/basis/aug-cc-pvdz-ri.gbs 
    atoms 7-8, 15-16 entry C          line   112 file /theoryfs2/ds/csargent/miniconda3/envs/cle/share/psi4/basis/aug-cc-pvdz-ri.gbs 


  //>>>>>>>>>>>>>>>>>>>>>>>>>>>>>>>>>>>//
  //               SAPT0               //
  //<<<<<<<<<<<<<<<<<<<<<<<<<<<<<<<<<<<//


*** tstart() called on ds1
*** at Wed Sep  1 13:27:26 2021

        SAPT0  
    Ed Hohenstein
     6 June 2009

      Orbital Information
  --------------------------
    NSO        =       256
    NMO        =       256
    NRI        =       760
    NOCC A     =        16
    NOCC B     =        16
    FOCC A     =         4
    FOCC B     =         4
    NVIR A     =       240
    NVIR B     =       240

    Elst10,r            =     0.000032329320 [Eh]
    Exch10              =    -0.000000000000 [Eh]
    Exch10 (S^2)        =    -0.000000000000 [Eh]

    Iter     Energy [mEh]          dE [mEh]         Residual      Time [s]
       1      -0.00003434       0.000034337       0.057537130             0
       2      -0.00003483       0.000000491       0.021011768             0
       3      -0.00003891       0.000004084       0.007659491             0
       4      -0.00003947       0.000000561       0.002348390             0
       5      -0.00003922      -0.000000256       0.000757280             0
       6      -0.00003922       0.000000004       0.000232186             0
       7      -0.00003924       0.000000014       0.000073536             0
       8      -0.00003924       0.000000001       0.000021179             0
       9      -0.00003923      -0.000000001       0.000006239             0
      10      -0.00003923      -0.000000000       0.000001460             0
      11      -0.00003923       0.000000000       0.000000362             0

    CHF Iterations converged


    Iter     Energy [mEh]          dE [mEh]         Residual      Time [s]
       1      -0.00002916       0.000029160       0.049161702             0
       2      -0.00002941       0.000000248       0.018307932             0
       3      -0.00003225       0.000002844       0.006325928             1
       4      -0.00003276       0.000000507       0.001694889             1
       5      -0.00003265      -0.000000113       0.000969016             1
       6      -0.00003260      -0.000000044       0.000274259             1
       7      -0.00003262       0.000000014       0.000078933             1
       8      -0.00003262       0.000000003       0.000018131             1
       9      -0.00003262      -0.000000001       0.000004933             1
      10      -0.00003262      -0.000000000       0.000001423             1
      11      -0.00003262       0.000000000       0.000000548             1

    CHF Iterations converged

    Ind20,r (A<-B)      =    -0.000000039235 [Eh]
    Ind20,r (B<-A)      =    -0.000000032619 [Eh]
    Ind20,r             =    -0.000000071854 [Eh]
    Exch-Ind20,r (A<-B) =     0.000000000000 [Eh]
    Exch-Ind20,r (B<-A) =     0.000000000000 [Eh]
    Exch-Ind20,r        =     0.000000000000 [Eh]
    Disp20              =    -0.000000364651 [Eh]
    Disp20 (SS)         =    -0.000000182325 [Eh]
    Disp20 (OS)         =    -0.000000182325 [Eh]
    Exch-Disp20         =     0.000000000000 [Eh]
    Exch-Disp20 (SS)    =     0.000000000000 [Eh]
    Exch-Disp20 (OS)    =     0.000000000000 [Eh]

    SAPT Results 
  --------------------------------------------------------------------------------------------------------
    Electrostatics                  0.03232932 [mEh]       0.02028695 [kcal/mol]       0.08488062 [kJ/mol]
      Elst10,r                      0.03232932 [mEh]       0.02028695 [kcal/mol]       0.08488062 [kJ/mol]

    Exchange                       -0.00000000 [mEh]      -0.00000000 [kcal/mol]      -0.00000000 [kJ/mol]
      Exch10                       -0.00000000 [mEh]      -0.00000000 [kcal/mol]      -0.00000000 [kJ/mol]
      Exch10(S^2)                  -0.00000000 [mEh]      -0.00000000 [kcal/mol]      -0.00000000 [kJ/mol]

    Induction                      -0.00007638 [mEh]      -0.00004793 [kcal/mol]      -0.00020053 [kJ/mol]
      Ind20,r                      -0.00007185 [mEh]      -0.00004509 [kcal/mol]      -0.00018865 [kJ/mol]
      Exch-Ind20,r                  0.00000000 [mEh]       0.00000000 [kcal/mol]       0.00000000 [kJ/mol]
      delta HF,r (2)               -0.00000452 [mEh]      -0.00000284 [kcal/mol]      -0.00001188 [kJ/mol]

    Dispersion                     -0.00036465 [mEh]      -0.00022882 [kcal/mol]      -0.00095739 [kJ/mol]
      Disp20                       -0.00036465 [mEh]      -0.00022882 [kcal/mol]      -0.00095739 [kJ/mol]
      Exch-Disp20                   0.00000000 [mEh]       0.00000000 [kcal/mol]       0.00000000 [kJ/mol]
      Disp20 (SS)                  -0.00018233 [mEh]      -0.00011441 [kcal/mol]      -0.00047869 [kJ/mol]
      Disp20 (OS)                  -0.00018233 [mEh]      -0.00011441 [kcal/mol]      -0.00047869 [kJ/mol]
      Exch-Disp20 (SS)              0.00000000 [mEh]       0.00000000 [kcal/mol]       0.00000000 [kJ/mol]
      Exch-Disp20 (OS)              0.00000000 [mEh]       0.00000000 [kcal/mol]       0.00000000 [kJ/mol]

  Total HF                          0.03225294 [mEh]       0.02023903 [kcal/mol]       0.08468009 [kJ/mol]
  Total SAPT0                       0.03188829 [mEh]       0.02001020 [kcal/mol]       0.08372270 [kJ/mol]

  Special recipe for scaled SAPT0 (see Manual):
    Electrostatics sSAPT0           0.03232932 [mEh]       0.02028695 [kcal/mol]       0.08488062 [kJ/mol]
    Exchange sSAPT0                -0.00000000 [mEh]      -0.00000000 [kcal/mol]      -0.00000000 [kJ/mol]
    Induction sSAPT0               -0.00007638 [mEh]      -0.00004793 [kcal/mol]      -0.00020053 [kJ/mol]
    Dispersion sSAPT0              -0.00036465 [mEh]      -0.00022882 [kcal/mol]      -0.00095739 [kJ/mol]
  Total sSAPT0                      0.03188829 [mEh]       0.02001020 [kcal/mol]       0.08372270 [kJ/mol]
  --------------------------------------------------------------------------------------------------------

*** tstop() called on ds1 at Wed Sep  1 13:27:32 2021
Module time:
	user time   =      27.15 seconds =       0.45 minutes
	system time =       2.36 seconds =       0.04 minutes
	total time  =          6 seconds =       0.10 minutes
Total time:
	user time   =      64.30 seconds =       1.07 minutes
	system time =       3.16 seconds =       0.05 minutes
	total time  =         14 seconds =       0.23 minutes


Warning! sapt0 does not have an associated derived wavefunction.The returned wavefunction is the dimer SCF wavefunction.


    Psi4 stopped on: Wednesday, 01 September 2021 01:27PM
    Psi4 wall time for execution: 0:00:13.96

*** Psi4 exiting successfully. Buy a developer a beer!
