
    -----------------------------------------------------------------------
          Psi4: An Open-Source Ab Initio Electronic Structure Package
                               Psi4 1.4rc3 

                         Git: Rev {HEAD} 080dba6 


    D. G. A. Smith, L. A. Burns, A. C. Simmonett, R. M. Parrish,
    M. C. Schieber, R. Galvelis, P. Kraus, H. Kruse, R. Di Remigio,
    A. Alenaizan, A. M. James, S. Lehtola, J. P. Misiewicz, M. Scheurer,
    R. A. Shaw, J. B. Schriber, Y. Xie, Z. L. Glick, D. A. Sirianni,
    J. S. O'Brien, J. M. Waldrop, A. Kumar, E. G. Hohenstein,
    B. P. Pritchard, B. R. Brooks, H. F. Schaefer III, A. Yu. Sokolov,
    K. Patkowski, A. E. DePrince III, U. Bozkaya, R. A. King,
    F. A. Evangelista, J. M. Turney, T. D. Crawford, C. D. Sherrill,
    J. Chem. Phys. 152(18) 184108 (2020). https://doi.org/10.1063/5.0006002

                            Additional Code Authors
    E. T. Seidl, C. L. Janssen, E. F. Valeev, M. L. Leininger,
    J. F. Gonthier, R. M. Richard, H. R. McAlexander, M. Saitow, X. Wang,
    P. Verma, and M. H. Lechner

             Previous Authors, Complete List of Code Contributors,
                       and Citations for Specific Modules
    https://github.com/psi4/psi4/blob/master/codemeta.json
    https://github.com/psi4/psi4/graphs/contributors
    http://psicode.org/psi4manual/master/introduction.html#citing-psifour

    -----------------------------------------------------------------------


    Psi4 started on: Wednesday, 01 September 2021 01:19PM

    Process ID: 17994
    Host:       ds1
    PSIDATADIR: /theoryfs2/ds/csargent/miniconda3/envs/cle/share/psi4
    Memory:     500.0 MiB
    Threads:    6
    
  ==> Input File <==

--------------------------------------------------------------------------
# PSI4 file produced by CrystaLattE

# Generated from:               acetic_acid.xyz
# Psithon input for N-mer:      2mer-0+386
# Number of atoms per monomer:  [8, 8]
# Number of replicas:           2
# COM priority:                 1.735625490758e-05
# Minimum COM separations:      20.439 
# Separation priority:          3.080222851518e-05
# Minimum monomer separations:  16.881 
# Cutoff priority:              9.655531491421e-07
# Nuclear repulsion energy:     270.0288664620662

memory 7 GB

molecule Dimer_0_386 {
  O           -5.53102237       2.93940290       1.97762624 
  O           -2.40708886       0.90817734       0.04905909 
  H           -0.50304887       1.37579205       4.63880908 
  H            0.00000000       4.25104285       3.09072238 
  H           -2.38948215       4.01916779       5.40195041 
  H           -3.74771411       0.47147930      -1.21557512 
  C           -1.41859782       2.98500500       3.84405190 
  C           -3.32263781       2.28628814       1.91221413 
--
  O           -5.38513820      -0.92518151     -36.17944022 
  O           -8.50907170      -2.95640708     -38.10800738 
  H          -10.41311169      -2.48879236     -33.51825739 
  H          -10.91616057       0.38645844     -35.06634408 
  H           -8.52667842       0.15458338     -32.75511606 
  H           -7.16844646      -3.39310511     -39.37264158 
  C           -9.49756274      -0.87957941     -34.31301457 
  C           -7.59352275      -1.57829627     -36.24485234 
units = au
no_com
no_reorient
}

set {
  e_convergence 10
  d_convergence 10
  scf_type df
  mp2_type df
  cc_type df
  freeze_core true
}

energy('sapt0/aug-cc-pvdz')

--------------------------------------------------------------------------

  Memory set to   6.519 GiB by Python driver.

Scratch directory: /scratch/csargent/psi4.17562.33784/

Scratch directory: /scratch/csargent/psi4.17562.33784/

  //>>>>>>>>>>>>>>>>>>>>>>>>>>>>>>>>>>>//
  //              Dimer HF             //
  //<<<<<<<<<<<<<<<<<<<<<<<<<<<<<<<<<<<//


*** tstart() called on ds1
*** at Wed Sep  1 13:19:30 2021

   => Loading Basis Set <=

    Name: AUG-CC-PVDZ
    Role: ORBITAL
    Keyword: BASIS
    atoms 1-2, 9-10  entry O          line   254 file /theoryfs2/ds/csargent/miniconda3/envs/cle/share/psi4/basis/aug-cc-pvdz.gbs 
    atoms 3-6, 11-14 entry H          line    40 file /theoryfs2/ds/csargent/miniconda3/envs/cle/share/psi4/basis/aug-cc-pvdz.gbs 
    atoms 7-8, 15-16 entry C          line   182 file /theoryfs2/ds/csargent/miniconda3/envs/cle/share/psi4/basis/aug-cc-pvdz.gbs 


         ---------------------------------------------------------
                                   SCF
               by Justin Turney, Rob Parrish, Andy Simmonett
                          and Daniel G. A. Smith
                              RHF Reference
                        6 Threads,   6675 MiB Core
         ---------------------------------------------------------

  ==> Geometry <==

    Molecular point group: c1
    Full point group: C1

    Geometry (in Bohr), charge = 0, multiplicity = 1:

       Center              X                  Y                   Z               Mass       
    ------------   -----------------  -----------------  -----------------  -----------------
         O           -5.531022370000     2.939402900000     1.977626240000    15.994914619570
         O           -2.407088860000     0.908177340000     0.049059090000    15.994914619570
         H           -0.503048870000     1.375792050000     4.638809080000     1.007825032230
         H            0.000000000000     4.251042850000     3.090722380000     1.007825032230
         H           -2.389482150000     4.019167790000     5.401950410000     1.007825032230
         H           -3.747714110000     0.471479300000    -1.215575120000     1.007825032230
         C           -1.418597820000     2.985005000000     3.844051900000    12.000000000000
         C           -3.322637810000     2.286288140000     1.912214130000    12.000000000000
         O           -5.385138200000    -0.925181510000   -36.179440220000    15.994914619570
         O           -8.509071700000    -2.956407080000   -38.108007380000    15.994914619570
         H          -10.413111690000    -2.488792360000   -33.518257390000     1.007825032230
         H          -10.916160570000     0.386458440000   -35.066344080000     1.007825032230
         H           -8.526678420000     0.154583380000   -32.755116060000     1.007825032230
         H           -7.168446460000    -3.393105110000   -39.372641580000     1.007825032230
         C           -9.497562740000    -0.879579410000   -34.313014570000    12.000000000000
         C           -7.593522750000    -1.578296270000   -36.244852340000    12.000000000000

  Running in c1 symmetry.

  Rotational constants: A =      0.04226  B =      0.00072  C =      0.00071 [cm^-1]
  Rotational constants: A =   1266.77417  B =     21.69284  C =     21.38993 [MHz]
  Nuclear repulsion =  270.028866594377973

  Charge       = 0
  Multiplicity = 1
  Electrons    = 64
  Nalpha       = 32
  Nbeta        = 32

  ==> Algorithm <==

  SCF Algorithm Type is DF.
  DIIS enabled.
  MOM disabled.
  Fractional occupation disabled.
  Guess Type is SAD.
  Energy threshold   = 1.00e-10
  Density threshold  = 1.00e-10
  Integral threshold = 1.00e-12

  ==> Primary Basis <==

  Basis Set: AUG-CC-PVDZ
    Blend: AUG-CC-PVDZ
    Number of shells: 112
    Number of basis functions: 256
    Number of Cartesian functions: 272
    Spherical Harmonics?: true
    Max angular momentum: 2

   => Loading Basis Set <=

    Name: (AUG-CC-PVDZ AUX)
    Role: JKFIT
    Keyword: DF_BASIS_SCF
    atoms 1-2, 9-10  entry O          line   270 file /theoryfs2/ds/csargent/miniconda3/envs/cle/share/psi4/basis/aug-cc-pvdz-jkfit.gbs 
    atoms 3-6, 11-14 entry H          line    70 file /theoryfs2/ds/csargent/miniconda3/envs/cle/share/psi4/basis/aug-cc-pvdz-jkfit.gbs 
    atoms 7-8, 15-16 entry C          line   154 file /theoryfs2/ds/csargent/miniconda3/envs/cle/share/psi4/basis/aug-cc-pvdz-jkfit.gbs 

  ==> Integral Setup <==

  ==> DiskDFJK: Density-Fitted J/K Matrices <==

    J tasked:                  Yes
    K tasked:                  Yes
    wK tasked:                  No
    OpenMP threads:              6
    Integrals threads:           6
    Memory [MiB]:             5006
    Algorithm:                Core
    Integral Cache:           SAVE
    Schwarz Cutoff:          1E-12
    Fitting Condition:       1E-10

   => Auxiliary Basis Set <=

  Basis Set: (AUG-CC-PVDZ AUX)
    Blend: AUG-CC-PVDZ-JKFIT
    Number of shells: 320
    Number of basis functions: 944
    Number of Cartesian functions: 1088
    Spherical Harmonics?: true
    Max angular momentum: 3

  Minimum eigenvalue in the overlap matrix is 1.0277538299E-04.
  Reciprocal condition number of the overlap matrix is 9.6539088978E-06.
    Using symmetric orthogonalization.

  ==> Pre-Iterations <==

  SCF Guess: Superposition of Atomic Densities via on-the-fly atomic UHF (no occupation information).

   -------------------------
    Irrep   Nso     Nmo    
   -------------------------
     A        256     256 
   -------------------------
    Total     256     256
   -------------------------

  ==> Iterations <==

                           Total Energy        Delta E     RMS |[F,P]|

   @DF-RHF iter SAD:  -453.97985886934777   -4.53980e+02   0.00000e+00 
   @DF-RHF iter   1:  -455.36184951151694   -1.38199e+00   3.22735e-03 DIIS
   @DF-RHF iter   2:  -455.60185553590497   -2.40006e-01   1.87335e-03 DIIS
   @DF-RHF iter   3:  -455.68265201305655   -8.07965e-02   3.30261e-04 DIIS
   @DF-RHF iter   4:  -455.68712390458199   -4.47189e-03   1.46113e-04 DIIS
   @DF-RHF iter   5:  -455.68808533202798   -9.61427e-04   3.42365e-05 DIIS
   @DF-RHF iter   6:  -455.68815964236450   -7.43103e-05   1.66568e-05 DIIS
   @DF-RHF iter   7:  -455.68817921010316   -1.95677e-05   5.43292e-06 DIIS
   @DF-RHF iter   8:  -455.68818237204476   -3.16194e-06   1.43638e-06 DIIS
   @DF-RHF iter   9:  -455.68818260530139   -2.33257e-07   3.01228e-07 DIIS
   @DF-RHF iter  10:  -455.68818261294757   -7.64618e-09   7.94369e-08 DIIS
   @DF-RHF iter  11:  -455.68818261335480   -4.07226e-10   2.54813e-08 DIIS
   @DF-RHF iter  12:  -455.68818261339885   -4.40536e-11   6.03696e-09 DIIS
   @DF-RHF iter  13:  -455.68818261340175   -2.89901e-12   1.28632e-09 DIIS
   @DF-RHF iter  14:  -455.68818261340147    2.84217e-13   4.88279e-10 DIIS
   @DF-RHF iter  15:  -455.68818261340135    1.13687e-13   1.98815e-10 DIIS
   @DF-RHF iter  16:  -455.68818261340232   -9.66338e-13   5.77387e-11 DIIS
  Energy and wave function converged.


  ==> Post-Iterations <==

    Orbital Energies [Eh]
    ---------------------

    Doubly Occupied:                                                      

       1A    -20.629576     2A    -20.629389     3A    -20.552914  
       4A    -20.552732     5A    -11.396215     6A    -11.396032  
       7A    -11.251071     8A    -11.250885     9A     -1.475955  
      10A     -1.475771    11A     -1.357595    12A     -1.357413  
      13A     -1.033095    14A     -1.032909    15A     -0.838028  
      16A     -0.837842    17A     -0.703173    18A     -0.702991  
      19A     -0.688565    20A     -0.688380    21A     -0.657848  
      22A     -0.657662    23A     -0.576640    24A     -0.576455  
      25A     -0.569790    26A     -0.569603    27A     -0.561498  
      28A     -0.561311    29A     -0.475454    30A     -0.475272  
      31A     -0.452543    32A     -0.452361  

    Virtual:                                                              

      33A      0.032140    34A      0.032324    35A      0.045546  
      36A      0.045713    37A      0.055022    38A      0.055218  
      39A      0.064520    40A      0.064723    41A      0.098680  
      42A      0.098848    43A      0.117225    44A      0.117405  
      45A      0.117761    46A      0.117934    47A      0.140443  
      48A      0.140625    49A      0.151903    50A      0.152101  
      51A      0.156251    52A      0.156447    53A      0.164488  
      54A      0.164672    55A      0.171212    56A      0.171399  
      57A      0.196214    58A      0.196392    59A      0.209144  
      60A      0.209322    61A      0.233281    62A      0.233473  
      63A      0.234857    64A      0.235048    65A      0.270748  
      66A      0.270933    67A      0.290169    68A      0.290353  
      69A      0.295715    70A      0.295906    71A      0.319737  
      72A      0.319910    73A      0.322660    74A      0.322843  
      75A      0.347184    76A      0.347365    77A      0.370541  
      78A      0.370719    79A      0.378785    80A      0.378967  
      81A      0.394018    82A      0.394202    83A      0.401330  
      84A      0.401516    85A      0.426606    86A      0.426802  
      87A      0.438114    88A      0.438303    89A      0.441928  
      90A      0.442112    91A      0.475454    92A      0.475637  
      93A      0.492267    94A      0.492456    95A      0.524670  
      96A      0.524860    97A      0.537154    98A      0.537336  
      99A      0.553398   100A      0.553582   101A      0.569642  
     102A      0.569829   103A      0.583696   104A      0.583883  
     105A      0.602005   106A      0.602191   107A      0.618135  
     108A      0.618317   109A      0.640217   110A      0.640402  
     111A      0.649208   112A      0.649393   113A      0.666613  
     114A      0.666798   115A      0.684109   116A      0.684294  
     117A      0.697091   118A      0.697274   119A      0.703480  
     120A      0.703663   121A      0.733192   122A      0.733378  
     123A      0.742648   124A      0.742833   125A      0.798367  
     126A      0.798553   127A      0.853483   128A      0.853666  
     129A      0.876725   130A      0.876907   131A      0.912297  
     132A      0.912484   133A      0.949596   134A      0.949784  
     135A      0.954277   136A      0.954460   137A      0.983044  
     138A      0.983227   139A      1.041446   140A      1.041631  
     141A      1.088724   142A      1.088911   143A      1.101747  
     144A      1.101931   145A      1.118266   146A      1.118453  
     147A      1.157417   148A      1.157603   149A      1.172042  
     150A      1.172228   151A      1.176261   152A      1.176444  
     153A      1.235938   154A      1.236128   155A      1.272078  
     156A      1.272259   157A      1.319116   158A      1.319300  
     159A      1.358072   160A      1.358256   161A      1.390331  
     162A      1.390511   163A      1.412351   164A      1.412537  
     165A      1.462685   166A      1.462865   167A      1.467871  
     168A      1.468054   169A      1.545916   170A      1.546104  
     171A      1.634948   172A      1.635135   173A      1.649815  
     174A      1.650000   175A      1.715001   176A      1.715187  
     177A      1.755700   178A      1.755886   179A      1.772790  
     180A      1.772975   181A      1.847932   182A      1.848115  
     183A      1.865408   184A      1.865595   185A      1.883721  
     186A      1.883908   187A      1.966358   188A      1.966545  
     189A      1.979347   190A      1.979530   191A      2.026199  
     192A      2.026385   193A      2.037543   194A      2.037727  
     195A      2.122746   196A      2.122932   197A      2.171954  
     198A      2.172139   199A      2.193040   200A      2.193225  
     201A      2.244675   202A      2.244862   203A      2.253546  
     204A      2.253731   205A      2.272251   206A      2.272434  
     207A      2.312147   208A      2.312332   209A      2.379510  
     210A      2.379695   211A      2.430232   212A      2.430415  
     213A      2.438569   214A      2.438754   215A      2.536206  
     216A      2.536391   217A      2.623484   218A      2.623668  
     219A      2.652213   220A      2.652399   221A      2.783583  
     222A      2.783768   223A      2.833550   224A      2.833735  
     225A      2.886029   226A      2.886213   227A      2.974197  
     228A      2.974382   229A      3.001506   230A      3.001692  
     231A      3.016217   232A      3.016403   233A      3.178835  
     234A      3.179021   235A      3.346018   236A      3.346202  
     237A      3.666604   238A      3.666791   239A      3.690323  
     240A      3.690509   241A      3.736336   242A      3.736521  
     243A      3.759550   244A      3.759732   245A      3.790215  
     246A      3.790397   247A      3.805140   248A      3.805321  
     249A      3.900311   250A      3.900495   251A      4.050260  
     252A      4.050443   253A      4.142230   254A      4.142411  
     255A      4.309853   256A      4.310039  

    Final Occupation by Irrep:
              A 
    DOCC [    32 ]

  @DF-RHF Final Energy:  -455.68818261340232

   => Energetics <=

    Nuclear Repulsion Energy =            270.0288665943779733
    One-Electron Energy =               -1158.5601580229815681
    Two-Electron Energy =                 432.8431088152012762
    Total Energy =                       -455.6881826134023186

Computation Completed


Properties will be evaluated at   0.000000,   0.000000,   0.000000 [a0]

Properties computed using the SCF density matrix

  Nuclear Dipole Moment: [e a0]
     X:  -349.3171      Y:    21.3851      Z: -1095.6922

  Electronic Dipole Moment: [e a0]
     X:   349.3173      Y:   -21.9507      Z:  1095.5254

  Dipole Moment: [e a0]
     X:     0.0001      Y:    -0.5656      Z:    -0.1668     Total:     0.5897

  Dipole Moment: [D]
     X:     0.0003      Y:    -1.4377      Z:    -0.4239     Total:     1.4989


*** tstop() called on ds1 at Wed Sep  1 13:19:33 2021
Module time:
	user time   =      14.35 seconds =       0.24 minutes
	system time =       0.40 seconds =       0.01 minutes
	total time  =          3 seconds =       0.05 minutes
Total time:
	user time   =      14.35 seconds =       0.24 minutes
	system time =       0.40 seconds =       0.01 minutes
	total time  =          3 seconds =       0.05 minutes

  //>>>>>>>>>>>>>>>>>>>>>>>>>>>>>>>>>>>//
  //            Monomer A HF           //
  //<<<<<<<<<<<<<<<<<<<<<<<<<<<<<<<<<<<//


*** tstart() called on ds1
*** at Wed Sep  1 13:19:33 2021

   => Loading Basis Set <=

    Name: AUG-CC-PVDZ
    Role: ORBITAL
    Keyword: BASIS
    atoms 1-2, 9-10  entry O          line   254 file /theoryfs2/ds/csargent/miniconda3/envs/cle/share/psi4/basis/aug-cc-pvdz.gbs 
    atoms 3-6, 11-14 entry H          line    40 file /theoryfs2/ds/csargent/miniconda3/envs/cle/share/psi4/basis/aug-cc-pvdz.gbs 
    atoms 7-8, 15-16 entry C          line   182 file /theoryfs2/ds/csargent/miniconda3/envs/cle/share/psi4/basis/aug-cc-pvdz.gbs 


         ---------------------------------------------------------
                                   SCF
               by Justin Turney, Rob Parrish, Andy Simmonett
                          and Daniel G. A. Smith
                              RHF Reference
                        6 Threads,   6675 MiB Core
         ---------------------------------------------------------

  ==> Geometry <==

    Molecular point group: c1
    Full point group: C1

    Geometry (in Bohr), charge = 0, multiplicity = 1:

       Center              X                  Y                   Z               Mass       
    ------------   -----------------  -----------------  -----------------  -----------------
         O           -5.531022370000     2.939402900000     1.977626240000    15.994914619570
         O           -2.407088860000     0.908177340000     0.049059090000    15.994914619570
         H           -0.503048870000     1.375792050000     4.638809080000     1.007825032230
         H            0.000000000000     4.251042850000     3.090722380000     1.007825032230
         H           -2.389482150000     4.019167790000     5.401950410000     1.007825032230
         H           -3.747714110000     0.471479300000    -1.215575120000     1.007825032230
         C           -1.418597820000     2.985005000000     3.844051900000    12.000000000000
         C           -3.322637810000     2.286288140000     1.912214130000    12.000000000000
      Gh(O)          -5.385138200000    -0.925181510000   -36.179440220000    15.994914619570
      Gh(O)          -8.509071700000    -2.956407080000   -38.108007380000    15.994914619570
      Gh(H)         -10.413111690000    -2.488792360000   -33.518257390000     1.007825032230
      Gh(H)         -10.916160570000     0.386458440000   -35.066344080000     1.007825032230
      Gh(H)          -8.526678420000     0.154583380000   -32.755116060000     1.007825032230
      Gh(H)          -7.168446460000    -3.393105110000   -39.372641580000     1.007825032230
      Gh(C)          -9.497562740000    -0.879579410000   -34.313014570000    12.000000000000
      Gh(C)          -7.593522750000    -1.578296270000   -36.244852340000    12.000000000000

  Running in c1 symmetry.

  Rotational constants: A =      0.04226  B =      0.00072  C =      0.00071 [cm^-1]
  Rotational constants: A =   1266.77417  B =     21.69284  C =     21.38993 [MHz]
  Nuclear repulsion =  121.748430210971620

  Charge       = 0
  Multiplicity = 1
  Electrons    = 32
  Nalpha       = 16
  Nbeta        = 16

  ==> Algorithm <==

  SCF Algorithm Type is DF.
  DIIS enabled.
  MOM disabled.
  Fractional occupation disabled.
  Guess Type is SAD.
  Energy threshold   = 1.00e-10
  Density threshold  = 1.00e-10
  Integral threshold = 1.00e-12

  ==> Primary Basis <==

  Basis Set: AUG-CC-PVDZ
    Blend: AUG-CC-PVDZ
    Number of shells: 112
    Number of basis functions: 256
    Number of Cartesian functions: 272
    Spherical Harmonics?: true
    Max angular momentum: 2

   => Loading Basis Set <=

    Name: (AUG-CC-PVDZ AUX)
    Role: JKFIT
    Keyword: DF_BASIS_SCF
    atoms 1-2, 9-10  entry O          line   270 file /theoryfs2/ds/csargent/miniconda3/envs/cle/share/psi4/basis/aug-cc-pvdz-jkfit.gbs 
    atoms 3-6, 11-14 entry H          line    70 file /theoryfs2/ds/csargent/miniconda3/envs/cle/share/psi4/basis/aug-cc-pvdz-jkfit.gbs 
    atoms 7-8, 15-16 entry C          line   154 file /theoryfs2/ds/csargent/miniconda3/envs/cle/share/psi4/basis/aug-cc-pvdz-jkfit.gbs 

  ==> Integral Setup <==

  ==> DiskDFJK: Density-Fitted J/K Matrices <==

    J tasked:                  Yes
    K tasked:                  Yes
    wK tasked:                  No
    OpenMP threads:              6
    Integrals threads:           6
    Memory [MiB]:             5006
    Algorithm:                Core
    Integral Cache:           LOAD
    Schwarz Cutoff:          1E-12
    Fitting Condition:       1E-10

   => Auxiliary Basis Set <=

  Basis Set: (AUG-CC-PVDZ AUX)
    Blend: AUG-CC-PVDZ-JKFIT
    Number of shells: 320
    Number of basis functions: 944
    Number of Cartesian functions: 1088
    Spherical Harmonics?: true
    Max angular momentum: 3

  Minimum eigenvalue in the overlap matrix is 1.0277538299E-04.
  Reciprocal condition number of the overlap matrix is 9.6539088978E-06.
    Using symmetric orthogonalization.

  ==> Pre-Iterations <==

  SCF Guess: Superposition of Atomic Densities via on-the-fly atomic UHF (no occupation information).

   -------------------------
    Irrep   Nso     Nmo    
   -------------------------
     A        256     256 
   -------------------------
    Total     256     256
   -------------------------

  ==> Iterations <==

                           Total Energy        Delta E     RMS |[F,P]|

   @DF-RHF iter SAD:  -226.98992942906335   -2.26990e+02   0.00000e+00 
   @DF-RHF iter   1:  -227.68091168148621   -6.90982e-01   2.28211e-03 DIIS
   @DF-RHF iter   2:  -227.80091445451245   -1.20003e-01   1.32478e-03 DIIS
   @DF-RHF iter   3:  -227.84131987377285   -4.04054e-02   2.33581e-04 DIIS
   @DF-RHF iter   4:  -227.84355633732093   -2.23646e-03   1.03339e-04 DIIS
   @DF-RHF iter   5:  -227.84403723832642   -4.80901e-04   2.42136e-05 DIIS
   @DF-RHF iter   6:  -227.84407440632395   -3.71680e-05   1.17797e-05 DIIS
   @DF-RHF iter   7:  -227.84408419444995   -9.78813e-06   3.84272e-06 DIIS
   @DF-RHF iter   8:  -227.84408577603676   -1.58159e-06   1.01577e-06 DIIS
   @DF-RHF iter   9:  -227.84408589268688   -1.16650e-07   2.12954e-07 DIIS
   @DF-RHF iter  10:  -227.84408589650755   -3.82067e-09   5.61608e-08 DIIS
   @DF-RHF iter  11:  -227.84408589671105   -2.03499e-10   1.80147e-08 DIIS
   @DF-RHF iter  12:  -227.84408589673311   -2.20552e-11   4.26466e-09 DIIS
   @DF-RHF iter  13:  -227.84408589673461   -1.50635e-12   8.93569e-10 DIIS
   @DF-RHF iter  14:  -227.84408589673458    2.84217e-14   2.86711e-10 DIIS
   @DF-RHF iter  15:  -227.84408589673467   -8.52651e-14   1.08058e-10 DIIS
   @DF-RHF iter  16:  -227.84408589673453    1.42109e-13   2.86098e-11 DIIS
  Energy and wave function converged.


  ==> Post-Iterations <==

    Orbital Energies [Eh]
    ---------------------

    Doubly Occupied:                                                      

       1A    -20.629476     2A    -20.552804     3A    -11.396108  
       4A    -11.250979     5A     -1.475853     6A     -1.357486  
       7A     -1.032999     8A     -0.837930     9A     -0.703065  
      10A     -0.688465    11A     -0.657749    12A     -0.576538  
      13A     -0.569697    14A     -0.561403    15A     -0.475343  
      16A     -0.452434  

    Virtual:                                                              

      17A      0.024678    18A      0.032214    19A      0.045627  
      20A      0.046745    21A      0.055084    22A      0.055468  
      23A      0.056412    24A      0.064645    25A      0.085296  
      26A      0.098769    27A      0.104515    28A      0.112095  
      29A      0.117287    30A      0.117323    31A      0.117857  
      32A      0.140285    33A      0.140545    34A      0.141282  
      35A      0.146749    36A      0.151976    37A      0.156356  
      38A      0.164577    39A      0.171320    40A      0.176285  
      41A      0.196303    42A      0.205529    43A      0.209237  
      44A      0.214510    45A      0.226196    46A      0.233376  
      47A      0.234963    48A      0.243937    49A      0.260148  
      50A      0.264722    51A      0.270849    52A      0.276559  
      53A      0.285350    54A      0.290295    55A      0.295802  
      56A      0.319834    57A      0.322781    58A      0.332206  
      59A      0.336147    60A      0.347275    61A      0.369353  
      62A      0.370652    63A      0.378870    64A      0.394119  
      65A      0.399209    66A      0.401429    67A      0.409701  
      68A      0.426690    69A      0.431059    70A      0.437838  
      71A      0.438218    72A      0.442006    73A      0.460367  
      74A      0.475555    75A      0.490144    76A      0.492357  
      77A      0.497211    78A      0.516435    79A      0.524763  
      80A      0.537262    81A      0.541680    82A      0.543489  
      83A      0.553487    84A      0.559555    85A      0.569740  
      86A      0.583791    87A      0.586729    88A      0.602101  
      89A      0.616232    90A      0.618231    91A      0.636161  
      92A      0.636981    93A      0.640311    94A      0.649301  
      95A      0.666705    96A      0.675047    97A      0.684210  
      98A      0.689863    99A      0.697190   100A      0.700733  
     101A      0.703571   102A      0.728045   103A      0.733289  
     104A      0.742748   105A      0.753551   106A      0.760233  
     107A      0.787071   108A      0.798460   109A      0.815696  
     110A      0.820021   111A      0.848154   112A      0.853581  
     113A      0.876833   114A      0.888108   115A      0.896328  
     116A      0.912403   117A      0.947528   118A      0.949697  
     119A      0.954375   120A      0.958032   121A      0.975819  
     122A      0.983144   123A      1.037870   124A      1.041547  
     125A      1.045104   126A      1.088819   127A      1.101839  
     128A      1.106328   129A      1.118367   130A      1.157520  
     131A      1.162471   132A      1.172141   133A      1.176359  
     134A      1.190792   135A      1.236033   136A      1.260544  
     137A      1.270138   138A      1.272187   139A      1.319230  
     140A      1.329480   141A      1.358181   142A      1.383990  
     143A      1.390440   144A      1.396163   145A      1.412451  
     146A      1.434563   147A      1.458259   148A      1.462795  
     149A      1.467553   150A      1.467976   151A      1.469431  
     152A      1.537451   153A      1.546014   154A      1.569201  
     155A      1.635048   156A      1.649915   157A      1.683621  
     158A      1.715101   159A      1.717379   160A      1.755800  
     161A      1.772884   162A      1.799890   163A      1.848039  
     164A      1.865503   165A      1.882818   166A      1.883811  
     167A      1.936964   168A      1.966454   169A      1.979453  
     170A      2.026298   171A      2.037642   172A      2.070707  
     173A      2.122848   174A      2.172049   175A      2.193137  
     176A      2.244771   177A      2.250834   178A      2.253643  
     179A      2.264901   180A      2.272354   181A      2.273899  
     182A      2.302938   183A      2.312246   184A      2.336552  
     185A      2.339073   186A      2.362091   187A      2.376485  
     188A      2.379604   189A      2.430330   190A      2.438663  
     191A      2.467106   192A      2.505800   193A      2.536303  
     194A      2.585937   195A      2.623585   196A      2.652307  
     197A      2.664645   198A      2.698292   199A      2.754324  
     200A      2.783681   201A      2.786166   202A      2.824189  
     203A      2.833647   204A      2.886121   205A      2.915973  
     206A      2.974291   207A      3.001602   208A      3.016316  
     209A      3.042700   210A      3.178935   211A      3.182426  
     212A      3.278600   213A      3.310702   214A      3.346124  
     215A      3.356888   216A      3.431508   217A      3.486720  
     218A      3.662799   219A      3.666705   220A      3.690423  
     221A      3.736441   222A      3.740109   223A      3.759662  
     224A      3.790324   225A      3.805251   226A      3.900417  
     227A      4.026137   228A      4.050368   229A      4.142340  
     230A      4.153727   231A      4.309953   232A      4.504989  
     233A      4.616945   234A      4.724975   235A      4.925966  
     236A      4.969803   237A      4.978069   238A      5.001721  
     239A      5.016926   240A      5.033807   241A      5.052547  
     242A      5.222068   243A      5.244261   244A      5.615298  
     245A      5.661292   246A      5.791404   247A      5.869107  
     248A      6.052870   249A      6.228923   250A      6.520868  
     251A      6.790356   252A      7.093043   253A     18.346328  
     254A     18.940829   255A     33.525607   256A     33.563668  

    Final Occupation by Irrep:
              A 
    DOCC [    16 ]

  @DF-RHF Final Energy:  -227.84408589673453

   => Energetics <=

    Nuclear Repulsion Energy =            121.7484302109716197
    One-Electron Energy =                -552.7483714442041673
    Two-Electron Energy =                 203.1558553364980355
    Total Energy =                       -227.8440858967345264

Computation Completed


Properties will be evaluated at   0.000000,   0.000000,   0.000000 [a0]

Properties computed using the SCF density matrix

  Nuclear Dipole Moment: [e a0]
     X:   -98.5925      Y:    72.5259      Z:    62.6670

  Electronic Dipole Moment: [e a0]
     X:    99.4206      Y:   -72.8088      Z:   -62.7502

  Dipole Moment: [e a0]
     X:     0.8281      Y:    -0.2829      Z:    -0.0832     Total:     0.8790

  Dipole Moment: [D]
     X:     2.1048      Y:    -0.7191      Z:    -0.2116     Total:     2.2342


*** tstop() called on ds1 at Wed Sep  1 13:19:36 2021
Module time:
	user time   =      10.26 seconds =       0.17 minutes
	system time =       0.21 seconds =       0.00 minutes
	total time  =          3 seconds =       0.05 minutes
Total time:
	user time   =      24.89 seconds =       0.41 minutes
	system time =       0.62 seconds =       0.01 minutes
	total time  =          6 seconds =       0.10 minutes

  //>>>>>>>>>>>>>>>>>>>>>>>>>>>>>>>>>>>//
  //            Monomer B HF           //
  //<<<<<<<<<<<<<<<<<<<<<<<<<<<<<<<<<<<//


*** tstart() called on ds1
*** at Wed Sep  1 13:19:36 2021

   => Loading Basis Set <=

    Name: AUG-CC-PVDZ
    Role: ORBITAL
    Keyword: BASIS
    atoms 1-2, 9-10  entry O          line   254 file /theoryfs2/ds/csargent/miniconda3/envs/cle/share/psi4/basis/aug-cc-pvdz.gbs 
    atoms 3-6, 11-14 entry H          line    40 file /theoryfs2/ds/csargent/miniconda3/envs/cle/share/psi4/basis/aug-cc-pvdz.gbs 
    atoms 7-8, 15-16 entry C          line   182 file /theoryfs2/ds/csargent/miniconda3/envs/cle/share/psi4/basis/aug-cc-pvdz.gbs 


         ---------------------------------------------------------
                                   SCF
               by Justin Turney, Rob Parrish, Andy Simmonett
                          and Daniel G. A. Smith
                              RHF Reference
                        6 Threads,   6675 MiB Core
         ---------------------------------------------------------

  ==> Geometry <==

    Molecular point group: c1
    Full point group: C1

    Geometry (in Bohr), charge = 0, multiplicity = 1:

       Center              X                  Y                   Z               Mass       
    ------------   -----------------  -----------------  -----------------  -----------------
      Gh(O)          -5.531022370000     2.939402900000     1.977626240000    15.994914619570
      Gh(O)          -2.407088860000     0.908177340000     0.049059090000    15.994914619570
      Gh(H)          -0.503048870000     1.375792050000     4.638809080000     1.007825032230
      Gh(H)           0.000000000000     4.251042850000     3.090722380000     1.007825032230
      Gh(H)          -2.389482150000     4.019167790000     5.401950410000     1.007825032230
      Gh(H)          -3.747714110000     0.471479300000    -1.215575120000     1.007825032230
      Gh(C)          -1.418597820000     2.985005000000     3.844051900000    12.000000000000
      Gh(C)          -3.322637810000     2.286288140000     1.912214130000    12.000000000000
         O           -5.385138200000    -0.925181510000   -36.179440220000    15.994914619570
         O           -8.509071700000    -2.956407080000   -38.108007380000    15.994914619570
         H          -10.413111690000    -2.488792360000   -33.518257390000     1.007825032230
         H          -10.916160570000     0.386458440000   -35.066344080000     1.007825032230
         H           -8.526678420000     0.154583380000   -32.755116060000     1.007825032230
         H           -7.168446460000    -3.393105110000   -39.372641580000     1.007825032230
         C           -9.497562740000    -0.879579410000   -34.313014570000    12.000000000000
         C           -7.593522750000    -1.578296270000   -36.244852340000    12.000000000000

  Running in c1 symmetry.

  Rotational constants: A =      0.04226  B =      0.00072  C =      0.00071 [cm^-1]
  Rotational constants: A =   1266.77417  B =     21.69284  C =     21.38993 [MHz]
  Nuclear repulsion =  121.748430304384129

  Charge       = 0
  Multiplicity = 1
  Electrons    = 32
  Nalpha       = 16
  Nbeta        = 16

  ==> Algorithm <==

  SCF Algorithm Type is DF.
  DIIS enabled.
  MOM disabled.
  Fractional occupation disabled.
  Guess Type is SAD.
  Energy threshold   = 1.00e-10
  Density threshold  = 1.00e-10
  Integral threshold = 1.00e-12

  ==> Primary Basis <==

  Basis Set: AUG-CC-PVDZ
    Blend: AUG-CC-PVDZ
    Number of shells: 112
    Number of basis functions: 256
    Number of Cartesian functions: 272
    Spherical Harmonics?: true
    Max angular momentum: 2

   => Loading Basis Set <=

    Name: (AUG-CC-PVDZ AUX)
    Role: JKFIT
    Keyword: DF_BASIS_SCF
    atoms 1-2, 9-10  entry O          line   270 file /theoryfs2/ds/csargent/miniconda3/envs/cle/share/psi4/basis/aug-cc-pvdz-jkfit.gbs 
    atoms 3-6, 11-14 entry H          line    70 file /theoryfs2/ds/csargent/miniconda3/envs/cle/share/psi4/basis/aug-cc-pvdz-jkfit.gbs 
    atoms 7-8, 15-16 entry C          line   154 file /theoryfs2/ds/csargent/miniconda3/envs/cle/share/psi4/basis/aug-cc-pvdz-jkfit.gbs 

  ==> Integral Setup <==

  ==> DiskDFJK: Density-Fitted J/K Matrices <==

    J tasked:                  Yes
    K tasked:                  Yes
    wK tasked:                  No
    OpenMP threads:              6
    Integrals threads:           6
    Memory [MiB]:             5006
    Algorithm:                Core
    Integral Cache:           LOAD
    Schwarz Cutoff:          1E-12
    Fitting Condition:       1E-10

   => Auxiliary Basis Set <=

  Basis Set: (AUG-CC-PVDZ AUX)
    Blend: AUG-CC-PVDZ-JKFIT
    Number of shells: 320
    Number of basis functions: 944
    Number of Cartesian functions: 1088
    Spherical Harmonics?: true
    Max angular momentum: 3

  Minimum eigenvalue in the overlap matrix is 1.0277538299E-04.
  Reciprocal condition number of the overlap matrix is 9.6539088978E-06.
    Using symmetric orthogonalization.

  ==> Pre-Iterations <==

  SCF Guess: Superposition of Atomic Densities via on-the-fly atomic UHF (no occupation information).

   -------------------------
    Irrep   Nso     Nmo    
   -------------------------
     A        256     256 
   -------------------------
    Total     256     256
   -------------------------

  ==> Iterations <==

                           Total Energy        Delta E     RMS |[F,P]|

   @DF-RHF iter SAD:  -226.98992943937401   -2.26990e+02   0.00000e+00 
   @DF-RHF iter   1:  -227.68091168117570   -6.90982e-01   2.28211e-03 DIIS
   @DF-RHF iter   2:  -227.80091445443770   -1.20003e-01   1.32478e-03 DIIS
   @DF-RHF iter   3:  -227.84131987329769   -4.04054e-02   2.33581e-04 DIIS
   @DF-RHF iter   4:  -227.84355633680565   -2.23646e-03   1.03339e-04 DIIS
   @DF-RHF iter   5:  -227.84403723780113   -4.80901e-04   2.42136e-05 DIIS
   @DF-RHF iter   6:  -227.84407440579739   -3.71680e-05   1.17797e-05 DIIS
   @DF-RHF iter   7:  -227.84408419392321   -9.78813e-06   3.84272e-06 DIIS
   @DF-RHF iter   8:  -227.84408577550968   -1.58159e-06   1.01577e-06 DIIS
   @DF-RHF iter   9:  -227.84408589215997   -1.16650e-07   2.12953e-07 DIIS
   @DF-RHF iter  10:  -227.84408589598056   -3.82059e-09   5.61608e-08 DIIS
   @DF-RHF iter  11:  -227.84408589618428   -2.03727e-10   1.80147e-08 DIIS
   @DF-RHF iter  12:  -227.84408589620628   -2.19984e-11   4.26466e-09 DIIS
   @DF-RHF iter  13:  -227.84408589620787   -1.59162e-12   8.93569e-10 DIIS
   @DF-RHF iter  14:  -227.84408589620756    3.12639e-13   2.86710e-10 DIIS
   @DF-RHF iter  15:  -227.84408589620773   -1.70530e-13   1.08058e-10 DIIS
   @DF-RHF iter  16:  -227.84408589620759    1.42109e-13   2.86096e-11 DIIS
  Energy and wave function converged.


  ==> Post-Iterations <==

    Orbital Energies [Eh]
    ---------------------

    Doubly Occupied:                                                      

       1A    -20.629476     2A    -20.552804     3A    -11.396108  
       4A    -11.250979     5A     -1.475853     6A     -1.357486  
       7A     -1.032999     8A     -0.837930     9A     -0.703065  
      10A     -0.688465    11A     -0.657749    12A     -0.576538  
      13A     -0.569697    14A     -0.561403    15A     -0.475343  
      16A     -0.452434  

    Virtual:                                                              

      17A      0.024864    18A      0.032214    19A      0.045627  
      20A      0.046917    21A      0.055084    22A      0.055662  
      23A      0.056605    24A      0.064644    25A      0.085474  
      26A      0.098769    27A      0.104692    28A      0.112276  
      29A      0.117323    30A      0.117474    31A      0.117857  
      32A      0.140466    33A      0.140545    34A      0.141472  
      35A      0.146943    36A      0.151976    37A      0.156356  
      38A      0.164577    39A      0.171320    40A      0.176452  
      41A      0.196303    42A      0.205723    43A      0.209237  
      44A      0.214694    45A      0.226382    46A      0.233376  
      47A      0.234963    48A      0.244122    49A      0.260332  
      50A      0.264905    51A      0.270849    52A      0.276738  
      53A      0.285539    54A      0.290295    55A      0.295802  
      56A      0.319834    57A      0.322781    58A      0.332393  
      59A      0.336345    60A      0.347275    61A      0.369539  
      62A      0.370652    63A      0.378870    64A      0.394119  
      65A      0.399396    66A      0.401429    67A      0.409887  
      68A      0.426690    69A      0.431238    70A      0.438023  
      71A      0.438218    72A      0.442006    73A      0.460545  
      74A      0.475555    75A      0.490332    76A      0.492357  
      77A      0.497395    78A      0.516617    79A      0.524763  
      80A      0.537262    81A      0.541864    82A      0.543679  
      83A      0.553487    84A      0.559740    85A      0.569740  
      86A      0.583791    87A      0.586917    88A      0.602101  
      89A      0.616417    90A      0.618231    91A      0.636343  
      92A      0.637170    93A      0.640311    94A      0.649301  
      95A      0.666705    96A      0.675235    97A      0.684210  
      98A      0.690048    99A      0.697190   100A      0.700919  
     101A      0.703571   102A      0.728230   103A      0.733289  
     104A      0.742748   105A      0.753736   106A      0.760422  
     107A      0.787260   108A      0.798460   109A      0.815886  
     110A      0.820210   111A      0.848343   112A      0.853581  
     113A      0.876833   114A      0.888296   115A      0.896509  
     116A      0.912403   117A      0.947710   118A      0.949697  
     119A      0.954375   120A      0.958219   121A      0.976004  
     122A      0.983144   123A      1.038053   124A      1.041547  
     125A      1.045290   126A      1.088819   127A      1.101839  
     128A      1.106511   129A      1.118367   130A      1.157520  
     131A      1.162656   132A      1.172141   133A      1.176359  
     134A      1.190978   135A      1.236033   136A      1.260727  
     137A      1.270320   138A      1.272187   139A      1.319230  
     140A      1.329665   141A      1.358181   142A      1.384171  
     143A      1.390440   144A      1.396347   145A      1.412451  
     146A      1.434742   147A      1.458445   148A      1.462795  
     149A      1.467738   150A      1.467976   151A      1.469617  
     152A      1.537634   153A      1.546014   154A      1.569387  
     155A      1.635048   156A      1.649915   157A      1.683807  
     158A      1.715101   159A      1.717561   160A      1.755800  
     161A      1.772884   162A      1.800074   163A      1.848039  
     164A      1.865503   165A      1.883007   166A      1.883811  
     167A      1.937152   168A      1.966454   169A      1.979453  
     170A      2.026298   171A      2.037642   172A      2.070897  
     173A      2.122848   174A      2.172049   175A      2.193137  
     176A      2.244771   177A      2.251023   178A      2.253643  
     179A      2.265090   180A      2.272354   181A      2.274081  
     182A      2.303127   183A      2.312246   184A      2.336740  
     185A      2.339261   186A      2.362279   187A      2.376671  
     188A      2.379604   189A      2.430330   190A      2.438663  
     191A      2.467291   192A      2.505983   193A      2.536303  
     194A      2.586123   195A      2.623585   196A      2.652307  
     197A      2.664833   198A      2.698479   199A      2.754511  
     200A      2.783681   201A      2.786355   202A      2.824375  
     203A      2.833647   204A      2.886121   205A      2.916159  
     206A      2.974291   207A      3.001602   208A      3.016316  
     209A      3.042887   210A      3.178935   211A      3.182613  
     212A      3.278789   213A      3.310890   214A      3.346124  
     215A      3.357075   216A      3.431694   217A      3.486909  
     218A      3.662984   219A      3.666705   220A      3.690423  
     221A      3.736441   222A      3.740297   223A      3.759662  
     224A      3.790324   225A      3.805251   226A      3.900417  
     227A      4.026318   228A      4.050368   229A      4.142340  
     230A      4.153913   231A      4.309953   232A      4.505170  
     233A      4.617131   234A      4.725162   235A      4.926147  
     236A      4.969985   237A      4.978257   238A      5.001899  
     239A      5.017112   240A      5.033995   241A      5.052734  
     242A      5.222250   243A      5.244446   244A      5.615488  
     245A      5.661479   246A      5.791589   247A      5.869287  
     248A      6.053053   249A      6.229102   250A      6.521057  
     251A      6.790541   252A      7.093225   253A     18.346516  
     254A     18.941016   255A     33.525784   256A     33.563858  

    Final Occupation by Irrep:
              A 
    DOCC [    16 ]

  @DF-RHF Final Energy:  -227.84408589620759

   => Energetics <=

    Nuclear Repulsion Energy =            121.7484303043841294
    One-Electron Energy =                -552.7483716104441100
    Two-Electron Energy =                 203.1558554098524212
    Total Energy =                       -227.8440858962075879

Computation Completed


Properties will be evaluated at   0.000000,   0.000000,   0.000000 [a0]

Properties computed using the SCF density matrix

  Nuclear Dipole Moment: [e a0]
     X:  -250.7246      Y:   -51.1408      Z: -1158.3591

  Electronic Dipole Moment: [e a0]
     X:   249.8965      Y:    50.8579      Z:  1158.2759

  Dipole Moment: [e a0]
     X:    -0.8281      Y:    -0.2829      Z:    -0.0832     Total:     0.8790

  Dipole Moment: [D]
     X:    -2.1048      Y:    -0.7191      Z:    -0.2116     Total:     2.2342


*** tstop() called on ds1 at Wed Sep  1 13:19:38 2021
Module time:
	user time   =      10.51 seconds =       0.18 minutes
	system time =       0.15 seconds =       0.00 minutes
	total time  =          2 seconds =       0.03 minutes
Total time:
	user time   =      35.51 seconds =       0.59 minutes
	system time =       0.77 seconds =       0.01 minutes
	total time  =          8 seconds =       0.13 minutes
  Constructing Basis Sets for SAPT...

   => Loading Basis Set <=

    Name: (AUG-CC-PVDZ AUX)
    Role: RIFIT
    Keyword: DF_BASIS_SAPT
    atoms 1-2, 9-10  entry O          line   204 file /theoryfs2/ds/csargent/miniconda3/envs/cle/share/psi4/basis/aug-cc-pvdz-ri.gbs 
    atoms 3-6, 11-14 entry H          line    30 file /theoryfs2/ds/csargent/miniconda3/envs/cle/share/psi4/basis/aug-cc-pvdz-ri.gbs 
    atoms 7-8, 15-16 entry C          line   112 file /theoryfs2/ds/csargent/miniconda3/envs/cle/share/psi4/basis/aug-cc-pvdz-ri.gbs 


  //>>>>>>>>>>>>>>>>>>>>>>>>>>>>>>>>>>>//
  //               SAPT0               //
  //<<<<<<<<<<<<<<<<<<<<<<<<<<<<<<<<<<<//


*** tstart() called on ds1
*** at Wed Sep  1 13:19:38 2021

        SAPT0  
    Ed Hohenstein
     6 June 2009

      Orbital Information
  --------------------------
    NSO        =       256
    NMO        =       256
    NRI        =       760
    NOCC A     =        16
    NOCC B     =        16
    FOCC A     =         4
    FOCC B     =         4
    NVIR A     =       240
    NVIR B     =       240

    Elst10,r            =    -0.000010795633 [Eh]
    Exch10              =    -0.000000000000 [Eh]
    Exch10 (S^2)        =    -0.000000000000 [Eh]

    Iter     Energy [mEh]          dE [mEh]         Residual      Time [s]
       1      -0.00000482       0.000004822       0.023705903             0
       2      -0.00000469      -0.000000130       0.007284922             0
       3      -0.00000521       0.000000516       0.002889997             0
       4      -0.00000530       0.000000091       0.000887225             0
       5      -0.00000527      -0.000000032       0.000404552             0
       6      -0.00000526      -0.000000004       0.000115398             0
       7      -0.00000527       0.000000002       0.000030109             0
       8      -0.00000527       0.000000000       0.000007007             0
       9      -0.00000527      -0.000000000       0.000002155             0
      10      -0.00000527      -0.000000000       0.000000553             0

    CHF Iterations converged


    Iter     Energy [mEh]          dE [mEh]         Residual      Time [s]
       1      -0.00000378       0.000003778       0.017705300             0
       2      -0.00000373      -0.000000046       0.006171299             1
       3      -0.00000403       0.000000300       0.002498207             1
       4      -0.00000412       0.000000092       0.000610475             1
       5      -0.00000410      -0.000000021       0.000301732             1
       6      -0.00000410      -0.000000003       0.000094450             1
       7      -0.00000410       0.000000002       0.000027605             1
       8      -0.00000410       0.000000000       0.000007165             1
       9      -0.00000410      -0.000000000       0.000002335             1
      10      -0.00000410      -0.000000000       0.000000880             1

    CHF Iterations converged

    Ind20,r (A<-B)      =    -0.000000005266 [Eh]
    Ind20,r (B<-A)      =    -0.000000004102 [Eh]
    Ind20,r             =    -0.000000009368 [Eh]
    Exch-Ind20,r (A<-B) =     0.000000000000 [Eh]
    Exch-Ind20,r (B<-A) =     0.000000000000 [Eh]
    Exch-Ind20,r        =     0.000000000000 [Eh]
    Disp20              =    -0.000000176947 [Eh]
    Disp20 (SS)         =    -0.000000088473 [Eh]
    Disp20 (OS)         =    -0.000000088473 [Eh]
    Exch-Disp20         =     0.000000000000 [Eh]
    Exch-Disp20 (SS)    =     0.000000000000 [Eh]
    Exch-Disp20 (OS)    =     0.000000000000 [Eh]

    SAPT Results 
  --------------------------------------------------------------------------------------------------------
    Electrostatics                 -0.01079563 [mEh]      -0.00677436 [kcal/mol]      -0.02834393 [kJ/mol]
      Elst10,r                     -0.01079563 [mEh]      -0.00677436 [kcal/mol]      -0.02834393 [kJ/mol]

    Exchange                       -0.00000000 [mEh]      -0.00000000 [kcal/mol]      -0.00000000 [kJ/mol]
      Exch10                       -0.00000000 [mEh]      -0.00000000 [kcal/mol]      -0.00000000 [kJ/mol]
      Exch10(S^2)                  -0.00000000 [mEh]      -0.00000000 [kcal/mol]      -0.00000000 [kJ/mol]

    Induction                      -0.00002483 [mEh]      -0.00001558 [kcal/mol]      -0.00006518 [kJ/mol]
      Ind20,r                      -0.00000937 [mEh]      -0.00000588 [kcal/mol]      -0.00002460 [kJ/mol]
      Exch-Ind20,r                  0.00000000 [mEh]       0.00000000 [kcal/mol]       0.00000000 [kJ/mol]
      delta HF,r (2)               -0.00001546 [mEh]      -0.00000970 [kcal/mol]      -0.00004059 [kJ/mol]

    Dispersion                     -0.00017695 [mEh]      -0.00011104 [kcal/mol]      -0.00046457 [kJ/mol]
      Disp20                       -0.00017695 [mEh]      -0.00011104 [kcal/mol]      -0.00046457 [kJ/mol]
      Exch-Disp20                   0.00000000 [mEh]       0.00000000 [kcal/mol]       0.00000000 [kJ/mol]
      Disp20 (SS)                  -0.00008847 [mEh]      -0.00005552 [kcal/mol]      -0.00023229 [kJ/mol]
      Disp20 (OS)                  -0.00008847 [mEh]      -0.00005552 [kcal/mol]      -0.00023229 [kJ/mol]
      Exch-Disp20 (SS)              0.00000000 [mEh]       0.00000000 [kcal/mol]       0.00000000 [kJ/mol]
      Exch-Disp20 (OS)              0.00000000 [mEh]       0.00000000 [kcal/mol]       0.00000000 [kJ/mol]

  Total HF                         -0.01082046 [mEh]      -0.00678994 [kcal/mol]      -0.02840911 [kJ/mol]
  Total SAPT0                      -0.01099741 [mEh]      -0.00690098 [kcal/mol]      -0.02887369 [kJ/mol]

  Special recipe for scaled SAPT0 (see Manual):
    Electrostatics sSAPT0          -0.01079563 [mEh]      -0.00677436 [kcal/mol]      -0.02834393 [kJ/mol]
    Exchange sSAPT0                -0.00000000 [mEh]      -0.00000000 [kcal/mol]      -0.00000000 [kJ/mol]
    Induction sSAPT0               -0.00002483 [mEh]      -0.00001558 [kcal/mol]      -0.00006518 [kJ/mol]
    Dispersion sSAPT0              -0.00017695 [mEh]      -0.00011104 [kcal/mol]      -0.00046457 [kJ/mol]
  Total sSAPT0                     -0.01099741 [mEh]      -0.00690098 [kcal/mol]      -0.02887369 [kJ/mol]
  --------------------------------------------------------------------------------------------------------

*** tstop() called on ds1 at Wed Sep  1 13:19:44 2021
Module time:
	user time   =      27.12 seconds =       0.45 minutes
	system time =       2.30 seconds =       0.04 minutes
	total time  =          6 seconds =       0.10 minutes
Total time:
	user time   =      63.41 seconds =       1.06 minutes
	system time =       3.10 seconds =       0.05 minutes
	total time  =         14 seconds =       0.23 minutes


Warning! sapt0 does not have an associated derived wavefunction.The returned wavefunction is the dimer SCF wavefunction.


    Psi4 stopped on: Wednesday, 01 September 2021 01:19PM
    Psi4 wall time for execution: 0:00:13.90

*** Psi4 exiting successfully. Buy a developer a beer!
