
    -----------------------------------------------------------------------
          Psi4: An Open-Source Ab Initio Electronic Structure Package
                               Psi4 1.4rc3 

                         Git: Rev {HEAD} 080dba6 


    D. G. A. Smith, L. A. Burns, A. C. Simmonett, R. M. Parrish,
    M. C. Schieber, R. Galvelis, P. Kraus, H. Kruse, R. Di Remigio,
    A. Alenaizan, A. M. James, S. Lehtola, J. P. Misiewicz, M. Scheurer,
    R. A. Shaw, J. B. Schriber, Y. Xie, Z. L. Glick, D. A. Sirianni,
    J. S. O'Brien, J. M. Waldrop, A. Kumar, E. G. Hohenstein,
    B. P. Pritchard, B. R. Brooks, H. F. Schaefer III, A. Yu. Sokolov,
    K. Patkowski, A. E. DePrince III, U. Bozkaya, R. A. King,
    F. A. Evangelista, J. M. Turney, T. D. Crawford, C. D. Sherrill,
    J. Chem. Phys. 152(18) 184108 (2020). https://doi.org/10.1063/5.0006002

                            Additional Code Authors
    E. T. Seidl, C. L. Janssen, E. F. Valeev, M. L. Leininger,
    J. F. Gonthier, R. M. Richard, H. R. McAlexander, M. Saitow, X. Wang,
    P. Verma, and M. H. Lechner

             Previous Authors, Complete List of Code Contributors,
                       and Citations for Specific Modules
    https://github.com/psi4/psi4/blob/master/codemeta.json
    https://github.com/psi4/psi4/graphs/contributors
    http://psicode.org/psi4manual/master/introduction.html#citing-psifour

    -----------------------------------------------------------------------


    Psi4 started on: Wednesday, 01 September 2021 01:16PM

    Process ID: 17915
    Host:       ds1
    PSIDATADIR: /theoryfs2/ds/csargent/miniconda3/envs/cle/share/psi4
    Memory:     500.0 MiB
    Threads:    6
    
  ==> Input File <==

--------------------------------------------------------------------------
# PSI4 file produced by CrystaLattE

# Generated from:               acetic_acid.xyz
# Psithon input for N-mer:      2mer-0+419
# Number of atoms per monomer:  [8, 8]
# Number of replicas:           2
# COM priority:                 2.167623708690e-05
# Minimum COM separations:      18.979 
# Separation priority:          3.129894862132e-05
# Minimum monomer separations:  16.792 
# Cutoff priority:              9.863695699855e-07
# Nuclear repulsion energy:     271.9485062872724

memory 7 GB

molecule Dimer_0_419 {
  O           -5.53102237       2.93940290       1.97762624 
  O           -2.40708886       0.90817734       0.04905909 
  H           -0.50304887       1.37579205       4.63880908 
  H            0.00000000       4.25104285       3.09072238 
  H           -2.38948215       4.01916779       5.40195041 
  H           -3.74771411       0.47147930      -1.21557512 
  C           -1.41859782       2.98500500       3.84405190 
  C           -3.32263781       2.28628814       1.91221413 
--
  O          -30.53758190     -16.38351916      -3.47338325 
  O          -33.66151541     -18.41474473      -5.40195041 
  H          -35.56555540     -17.94713001      -0.81220041 
  H          -36.06860427     -15.07187921      -2.36028711 
  H          -33.67912212     -15.30375427      -0.04905909 
  H          -32.32089016     -18.85144277      -6.66658461 
  C          -34.65000644     -16.33791706      -1.60695760 
  C          -32.74596646     -17.03663393      -3.53879536 
units = au
no_com
no_reorient
}

set {
  e_convergence 10
  d_convergence 10
  scf_type df
  mp2_type df
  cc_type df
  freeze_core true
}

energy('sapt0/aug-cc-pvdz')

--------------------------------------------------------------------------

  Memory set to   6.519 GiB by Python driver.

Scratch directory: /scratch/csargent/psi4.17562.33784/

Scratch directory: /scratch/csargent/psi4.17562.33784/

  //>>>>>>>>>>>>>>>>>>>>>>>>>>>>>>>>>>>//
  //              Dimer HF             //
  //<<<<<<<<<<<<<<<<<<<<<<<<<<<<<<<<<<<//


*** tstart() called on ds1
*** at Wed Sep  1 13:16:53 2021

   => Loading Basis Set <=

    Name: AUG-CC-PVDZ
    Role: ORBITAL
    Keyword: BASIS
    atoms 1-2, 9-10  entry O          line   254 file /theoryfs2/ds/csargent/miniconda3/envs/cle/share/psi4/basis/aug-cc-pvdz.gbs 
    atoms 3-6, 11-14 entry H          line    40 file /theoryfs2/ds/csargent/miniconda3/envs/cle/share/psi4/basis/aug-cc-pvdz.gbs 
    atoms 7-8, 15-16 entry C          line   182 file /theoryfs2/ds/csargent/miniconda3/envs/cle/share/psi4/basis/aug-cc-pvdz.gbs 


         ---------------------------------------------------------
                                   SCF
               by Justin Turney, Rob Parrish, Andy Simmonett
                          and Daniel G. A. Smith
                              RHF Reference
                        6 Threads,   6675 MiB Core
         ---------------------------------------------------------

  ==> Geometry <==

    Molecular point group: c1
    Full point group: C1

    Geometry (in Bohr), charge = 0, multiplicity = 1:

       Center              X                  Y                   Z               Mass       
    ------------   -----------------  -----------------  -----------------  -----------------
         O           -5.531022370000     2.939402900000     1.977626240000    15.994914619570
         O           -2.407088860000     0.908177340000     0.049059090000    15.994914619570
         H           -0.503048870000     1.375792050000     4.638809080000     1.007825032230
         H            0.000000000000     4.251042850000     3.090722380000     1.007825032230
         H           -2.389482150000     4.019167790000     5.401950410000     1.007825032230
         H           -3.747714110000     0.471479300000    -1.215575120000     1.007825032230
         C           -1.418597820000     2.985005000000     3.844051900000    12.000000000000
         C           -3.322637810000     2.286288140000     1.912214130000    12.000000000000
         O          -30.537581900000   -16.383519160000    -3.473383250000    15.994914619570
         O          -33.661515410000   -18.414744730000    -5.401950410000    15.994914619570
         H          -35.565555400000   -17.947130010000    -0.812200410000     1.007825032230
         H          -36.068604270000   -15.071879210000    -2.360287110000     1.007825032230
         H          -33.679122120000   -15.303754270000    -0.049059090000     1.007825032230
         H          -32.320890160000   -18.851442770000    -6.666584610000     1.007825032230
         C          -34.650006440000   -16.337917060000    -1.606957600000    12.000000000000
         C          -32.745966460000   -17.036633930000    -3.538795360000    12.000000000000

  Running in c1 symmetry.

  Rotational constants: A =      0.04395  B =      0.00072  C =      0.00071 [cm^-1]
  Rotational constants: A =   1317.49252  B =     21.55370  C =     21.25662 [MHz]
  Nuclear repulsion =  271.948506282011181

  Charge       = 0
  Multiplicity = 1
  Electrons    = 64
  Nalpha       = 32
  Nbeta        = 32

  ==> Algorithm <==

  SCF Algorithm Type is DF.
  DIIS enabled.
  MOM disabled.
  Fractional occupation disabled.
  Guess Type is SAD.
  Energy threshold   = 1.00e-10
  Density threshold  = 1.00e-10
  Integral threshold = 1.00e-12

  ==> Primary Basis <==

  Basis Set: AUG-CC-PVDZ
    Blend: AUG-CC-PVDZ
    Number of shells: 112
    Number of basis functions: 256
    Number of Cartesian functions: 272
    Spherical Harmonics?: true
    Max angular momentum: 2

   => Loading Basis Set <=

    Name: (AUG-CC-PVDZ AUX)
    Role: JKFIT
    Keyword: DF_BASIS_SCF
    atoms 1-2, 9-10  entry O          line   270 file /theoryfs2/ds/csargent/miniconda3/envs/cle/share/psi4/basis/aug-cc-pvdz-jkfit.gbs 
    atoms 3-6, 11-14 entry H          line    70 file /theoryfs2/ds/csargent/miniconda3/envs/cle/share/psi4/basis/aug-cc-pvdz-jkfit.gbs 
    atoms 7-8, 15-16 entry C          line   154 file /theoryfs2/ds/csargent/miniconda3/envs/cle/share/psi4/basis/aug-cc-pvdz-jkfit.gbs 

  ==> Integral Setup <==

  ==> DiskDFJK: Density-Fitted J/K Matrices <==

    J tasked:                  Yes
    K tasked:                  Yes
    wK tasked:                  No
    OpenMP threads:              6
    Integrals threads:           6
    Memory [MiB]:             5006
    Algorithm:                Core
    Integral Cache:           SAVE
    Schwarz Cutoff:          1E-12
    Fitting Condition:       1E-10

   => Auxiliary Basis Set <=

  Basis Set: (AUG-CC-PVDZ AUX)
    Blend: AUG-CC-PVDZ-JKFIT
    Number of shells: 320
    Number of basis functions: 944
    Number of Cartesian functions: 1088
    Spherical Harmonics?: true
    Max angular momentum: 3

  Minimum eigenvalue in the overlap matrix is 1.0277545292E-04.
  Reciprocal condition number of the overlap matrix is 9.6539154787E-06.
    Using symmetric orthogonalization.

  ==> Pre-Iterations <==

  SCF Guess: Superposition of Atomic Densities via on-the-fly atomic UHF (no occupation information).

   -------------------------
    Irrep   Nso     Nmo    
   -------------------------
     A        256     256 
   -------------------------
    Total     256     256
   -------------------------

  ==> Iterations <==

                           Total Energy        Delta E     RMS |[F,P]|

   @DF-RHF iter SAD:  -453.97985885651940   -4.53980e+02   0.00000e+00 
   @DF-RHF iter   1:  -455.36178612108978   -1.38193e+00   3.22745e-03 DIIS
   @DF-RHF iter   2:  -455.60178965140489   -2.40004e-01   1.87377e-03 DIIS
   @DF-RHF iter   3:  -455.68262104961622   -8.08314e-02   3.30438e-04 DIIS
   @DF-RHF iter   4:  -455.68709548374022   -4.47443e-03   1.46190e-04 DIIS
   @DF-RHF iter   5:  -455.68805784313690   -9.62359e-04   3.42541e-05 DIIS
   @DF-RHF iter   6:  -455.68813222124510   -7.43781e-05   1.66627e-05 DIIS
   @DF-RHF iter   7:  -455.68815181123728   -1.95900e-05   5.43670e-06 DIIS
   @DF-RHF iter   8:  -455.68815497617271   -3.16494e-06   1.43678e-06 DIIS
   @DF-RHF iter   9:  -455.68815520955343   -2.33381e-07   3.01107e-07 DIIS
   @DF-RHF iter  10:  -455.68815521719006   -7.63663e-09   7.94226e-08 DIIS
   @DF-RHF iter  11:  -455.68815521759780   -4.07738e-10   2.54795e-08 DIIS
   @DF-RHF iter  12:  -455.68815521764094   -4.31442e-11   6.04376e-09 DIIS
   @DF-RHF iter  13:  -455.68815521764390   -2.95586e-12   1.33208e-09 DIIS
   @DF-RHF iter  14:  -455.68815521764384    5.68434e-14   6.09939e-10 DIIS
   @DF-RHF iter  15:  -455.68815521764429   -4.54747e-13   2.09265e-10 DIIS
   @DF-RHF iter  16:  -455.68815521764384    4.54747e-13   5.77336e-11 DIIS
  Energy and wave function converged.


  ==> Post-Iterations <==

    Orbital Energies [Eh]
    ---------------------

    Doubly Occupied:                                                      

       1A    -20.629121     2A    -20.628650     3A    -20.552415  
       4A    -20.551986     5A    -11.395720     6A    -11.395302  
       7A    -11.250574     8A    -11.250252     9A     -1.475487  
      10A     -1.475031    11A     -1.357104    12A     -1.356664  
      13A     -1.032603    14A     -1.032248    15A     -0.837562  
      16A     -0.837130    17A     -0.702684    18A     -0.702245  
      19A     -0.688082    20A     -0.687680    21A     -0.657371  
      22A     -0.656958    23A     -0.576157    24A     -0.575741  
      25A     -0.569311    26A     -0.568940    27A     -0.560997  
      28A     -0.560667    29A     -0.474959    30A     -0.474516  
      31A     -0.452042    32A     -0.451620  

    Virtual:                                                              

      33A      0.032547    34A      0.032984    35A      0.045956  
      36A      0.046451    37A      0.055450    38A      0.055743  
      39A      0.065163    40A      0.065299    41A      0.099157  
      42A      0.099535    43A      0.117679    44A      0.118167  
      45A      0.118229    46A      0.118648    47A      0.140927  
      48A      0.141347    49A      0.152340    50A      0.152684  
      51A      0.156780    52A      0.157070    53A      0.164996  
      54A      0.165309    55A      0.171706    56A      0.172110  
      57A      0.196684    58A      0.197071    59A      0.209565  
      60A      0.210092    61A      0.233737    62A      0.234166  
      63A      0.235348    64A      0.235759    65A      0.271263  
      66A      0.271595    67A      0.290703    68A      0.291144  
      69A      0.296184    70A      0.296537    71A      0.320183  
      72A      0.320680    73A      0.323172    74A      0.323630  
      75A      0.347666    76A      0.348032    77A      0.371048  
      78A      0.371467    79A      0.379248    80A      0.379615  
      81A      0.394513    82A      0.394899    83A      0.401818  
      84A      0.402206    85A      0.427069    86A      0.427422  
      87A      0.438599    88A      0.438990    89A      0.442399  
      90A      0.442722    91A      0.475920    92A      0.476375  
      93A      0.492742    94A      0.493100    95A      0.525160  
      96A      0.525494    97A      0.537681    98A      0.538032  
      99A      0.553870   100A      0.554236   101A      0.570150  
     102A      0.570476   103A      0.584192   104A      0.584528  
     105A      0.602460   106A      0.602906   107A      0.618613  
     108A      0.619007   109A      0.640688   110A      0.641085  
     111A      0.649694   112A      0.650050   113A      0.667081  
     114A      0.667466   115A      0.684607   116A      0.684980  
     117A      0.697586   118A      0.697960   119A      0.703970  
     120A      0.704306   121A      0.733673   122A      0.734060  
     123A      0.743142   124A      0.743514   125A      0.798864  
     126A      0.799191   127A      0.853962   128A      0.854370  
     129A      0.877216   130A      0.877653   131A      0.912791  
     132A      0.913205   133A      0.950076   134A      0.950484  
     135A      0.954756   136A      0.955163   137A      0.983524  
     138A      0.983937   139A      1.041919   140A      1.042351  
     141A      1.089221   142A      1.089561   143A      1.102236  
     144A      1.102578   145A      1.118764   146A      1.119128  
     147A      1.157888   148A      1.158340   149A      1.172512  
     150A      1.172940   151A      1.176742   152A      1.177144  
     153A      1.236396   154A      1.236822   155A      1.272569  
     156A      1.273010   157A      1.319623   158A      1.320052  
     159A      1.358575   160A      1.358988   161A      1.390840  
     162A      1.391242   163A      1.412847   164A      1.413213  
     165A      1.463173   166A      1.463628   167A      1.468343  
     168A      1.468806   169A      1.546412   170A      1.546765  
     171A      1.635429   172A      1.635834   173A      1.650294  
     174A      1.650712   175A      1.715484   176A      1.715887  
     177A      1.756190   178A      1.756574   179A      1.773284  
     180A      1.773624   181A      1.848431   182A      1.848841  
     183A      1.865894   184A      1.866257   185A      1.884212  
     186A      1.884532   187A      1.966825   188A      1.967244  
     189A      1.979837   190A      1.980264   191A      2.026690  
     192A      2.027064   193A      2.038022   194A      2.038436  
     195A      2.123230   196A      2.123644   197A      2.172429  
     198A      2.172822   199A      2.193525   200A      2.193908  
     201A      2.245172   202A      2.245517   203A      2.254028  
     204A      2.254417   205A      2.272745   206A      2.273147  
     207A      2.312628   208A      2.313028   209A      2.379995  
     210A      2.380358   211A      2.430703   212A      2.431128  
     213A      2.439054   214A      2.439419   215A      2.536694  
     216A      2.537067   217A      2.623973   218A      2.624371  
     219A      2.652711   220A      2.653041   221A      2.784079  
     222A      2.784440   223A      2.834034   224A      2.834417  
     225A      2.886517   226A      2.886868   227A      2.974667  
     228A      2.975071   229A      3.001986   230A      3.002363  
     231A      3.016701   232A      3.017092   233A      3.179311  
     234A      3.179733   235A      3.346509   236A      3.346933  
     237A      3.667064   238A      3.667527   239A      3.690781  
     240A      3.691248   241A      3.736811   242A      3.737263  
     243A      3.760051   244A      3.760489   245A      3.790704  
     246A      3.791149   247A      3.805638   248A      3.806079  
     249A      3.900789   250A      3.901241   251A      4.050750  
     252A      4.051189   253A      4.142723   254A      4.143169  
     255A      4.310310   256A      4.310776  

    Final Occupation by Irrep:
              A 
    DOCC [    32 ]

  @DF-RHF Final Energy:  -455.68815521764384

   => Energetics <=

    Nuclear Repulsion Energy =            271.9485062820111807
    One-Electron Energy =               -1162.4376796181804821
    Two-Electron Energy =                 434.8010181185254623
    Total Energy =                       -455.6881552176438390

Computation Completed


Properties will be evaluated at   0.000000,   0.000000,   0.000000 [a0]

Properties computed using the SCF density matrix

  Nuclear Dipole Moment: [e a0]
     X: -1154.1953      Y:  -473.2817      Z:   -49.0983

  Electronic Dipole Moment: [e a0]
     X:  1154.1944      Y:   472.7159      Z:    48.9318

  Dipole Moment: [e a0]
     X:    -0.0009      Y:    -0.5658      Z:    -0.1665     Total:     0.5898

  Dipole Moment: [D]
     X:    -0.0023      Y:    -1.4382      Z:    -0.4232     Total:     1.4991


*** tstop() called on ds1 at Wed Sep  1 13:16:56 2021
Module time:
	user time   =      14.38 seconds =       0.24 minutes
	system time =       0.40 seconds =       0.01 minutes
	total time  =          3 seconds =       0.05 minutes
Total time:
	user time   =      14.38 seconds =       0.24 minutes
	system time =       0.40 seconds =       0.01 minutes
	total time  =          3 seconds =       0.05 minutes

  //>>>>>>>>>>>>>>>>>>>>>>>>>>>>>>>>>>>//
  //            Monomer A HF           //
  //<<<<<<<<<<<<<<<<<<<<<<<<<<<<<<<<<<<//


*** tstart() called on ds1
*** at Wed Sep  1 13:16:56 2021

   => Loading Basis Set <=

    Name: AUG-CC-PVDZ
    Role: ORBITAL
    Keyword: BASIS
    atoms 1-2, 9-10  entry O          line   254 file /theoryfs2/ds/csargent/miniconda3/envs/cle/share/psi4/basis/aug-cc-pvdz.gbs 
    atoms 3-6, 11-14 entry H          line    40 file /theoryfs2/ds/csargent/miniconda3/envs/cle/share/psi4/basis/aug-cc-pvdz.gbs 
    atoms 7-8, 15-16 entry C          line   182 file /theoryfs2/ds/csargent/miniconda3/envs/cle/share/psi4/basis/aug-cc-pvdz.gbs 


         ---------------------------------------------------------
                                   SCF
               by Justin Turney, Rob Parrish, Andy Simmonett
                          and Daniel G. A. Smith
                              RHF Reference
                        6 Threads,   6675 MiB Core
         ---------------------------------------------------------

  ==> Geometry <==

    Molecular point group: c1
    Full point group: C1

    Geometry (in Bohr), charge = 0, multiplicity = 1:

       Center              X                  Y                   Z               Mass       
    ------------   -----------------  -----------------  -----------------  -----------------
         O           -5.531022370000     2.939402900000     1.977626240000    15.994914619570
         O           -2.407088860000     0.908177340000     0.049059090000    15.994914619570
         H           -0.503048870000     1.375792050000     4.638809080000     1.007825032230
         H            0.000000000000     4.251042850000     3.090722380000     1.007825032230
         H           -2.389482150000     4.019167790000     5.401950410000     1.007825032230
         H           -3.747714110000     0.471479300000    -1.215575120000     1.007825032230
         C           -1.418597820000     2.985005000000     3.844051900000    12.000000000000
         C           -3.322637810000     2.286288140000     1.912214130000    12.000000000000
      Gh(O)         -30.537581900000   -16.383519160000    -3.473383250000    15.994914619570
      Gh(O)         -33.661515410000   -18.414744730000    -5.401950410000    15.994914619570
      Gh(H)         -35.565555400000   -17.947130010000    -0.812200410000     1.007825032230
      Gh(H)         -36.068604270000   -15.071879210000    -2.360287110000     1.007825032230
      Gh(H)         -33.679122120000   -15.303754270000    -0.049059090000     1.007825032230
      Gh(H)         -32.320890160000   -18.851442770000    -6.666584610000     1.007825032230
      Gh(C)         -34.650006440000   -16.337917060000    -1.606957600000    12.000000000000
      Gh(C)         -32.745966460000   -17.036633930000    -3.538795360000    12.000000000000

  Running in c1 symmetry.

  Rotational constants: A =      0.04395  B =      0.00072  C =      0.00071 [cm^-1]
  Rotational constants: A =   1317.49252  B =     21.55370  C =     21.25662 [MHz]
  Nuclear repulsion =  121.748430210971620

  Charge       = 0
  Multiplicity = 1
  Electrons    = 32
  Nalpha       = 16
  Nbeta        = 16

  ==> Algorithm <==

  SCF Algorithm Type is DF.
  DIIS enabled.
  MOM disabled.
  Fractional occupation disabled.
  Guess Type is SAD.
  Energy threshold   = 1.00e-10
  Density threshold  = 1.00e-10
  Integral threshold = 1.00e-12

  ==> Primary Basis <==

  Basis Set: AUG-CC-PVDZ
    Blend: AUG-CC-PVDZ
    Number of shells: 112
    Number of basis functions: 256
    Number of Cartesian functions: 272
    Spherical Harmonics?: true
    Max angular momentum: 2

   => Loading Basis Set <=

    Name: (AUG-CC-PVDZ AUX)
    Role: JKFIT
    Keyword: DF_BASIS_SCF
    atoms 1-2, 9-10  entry O          line   270 file /theoryfs2/ds/csargent/miniconda3/envs/cle/share/psi4/basis/aug-cc-pvdz-jkfit.gbs 
    atoms 3-6, 11-14 entry H          line    70 file /theoryfs2/ds/csargent/miniconda3/envs/cle/share/psi4/basis/aug-cc-pvdz-jkfit.gbs 
    atoms 7-8, 15-16 entry C          line   154 file /theoryfs2/ds/csargent/miniconda3/envs/cle/share/psi4/basis/aug-cc-pvdz-jkfit.gbs 

  ==> Integral Setup <==

  ==> DiskDFJK: Density-Fitted J/K Matrices <==

    J tasked:                  Yes
    K tasked:                  Yes
    wK tasked:                  No
    OpenMP threads:              6
    Integrals threads:           6
    Memory [MiB]:             5006
    Algorithm:                Core
    Integral Cache:           LOAD
    Schwarz Cutoff:          1E-12
    Fitting Condition:       1E-10

   => Auxiliary Basis Set <=

  Basis Set: (AUG-CC-PVDZ AUX)
    Blend: AUG-CC-PVDZ-JKFIT
    Number of shells: 320
    Number of basis functions: 944
    Number of Cartesian functions: 1088
    Spherical Harmonics?: true
    Max angular momentum: 3

  Minimum eigenvalue in the overlap matrix is 1.0277545292E-04.
  Reciprocal condition number of the overlap matrix is 9.6539154787E-06.
    Using symmetric orthogonalization.

  ==> Pre-Iterations <==

  SCF Guess: Superposition of Atomic Densities via on-the-fly atomic UHF (no occupation information).

   -------------------------
    Irrep   Nso     Nmo    
   -------------------------
     A        256     256 
   -------------------------
    Total     256     256
   -------------------------

  ==> Iterations <==

                           Total Energy        Delta E     RMS |[F,P]|

   @DF-RHF iter SAD:  -226.98992942864302   -2.26990e+02   0.00000e+00 
   @DF-RHF iter   1:  -227.68091168145855   -6.90982e-01   2.28211e-03 DIIS
   @DF-RHF iter   2:  -227.80091445442002   -1.20003e-01   1.32478e-03 DIIS
   @DF-RHF iter   3:  -227.84131987359308   -4.04054e-02   2.33581e-04 DIIS
   @DF-RHF iter   4:  -227.84355633713349   -2.23646e-03   1.03339e-04 DIIS
   @DF-RHF iter   5:  -227.84403723813622   -4.80901e-04   2.42136e-05 DIIS
   @DF-RHF iter   6:  -227.84407440613359   -3.71680e-05   1.17797e-05 DIIS
   @DF-RHF iter   7:  -227.84408419425947   -9.78813e-06   3.84272e-06 DIIS
   @DF-RHF iter   8:  -227.84408577584574   -1.58159e-06   1.01577e-06 DIIS
   @DF-RHF iter   9:  -227.84408589249668   -1.16651e-07   2.12953e-07 DIIS
   @DF-RHF iter  10:  -227.84408589631647   -3.81979e-09   5.61608e-08 DIIS
   @DF-RHF iter  11:  -227.84408589652057   -2.04096e-10   1.80147e-08 DIIS
   @DF-RHF iter  12:  -227.84408589654208   -2.15152e-11   4.26466e-09 DIIS
   @DF-RHF iter  13:  -227.84408589654359   -1.50635e-12   8.93569e-10 DIIS
   @DF-RHF iter  14:  -227.84408589654407   -4.83169e-13   2.86711e-10 DIIS
   @DF-RHF iter  15:  -227.84408589654410   -2.84217e-14   1.08059e-10 DIIS
   @DF-RHF iter  16:  -227.84408589654419   -8.52651e-14   2.86098e-11 DIIS
  Energy and wave function converged.


  ==> Post-Iterations <==

    Orbital Energies [Eh]
    ---------------------

    Doubly Occupied:                                                      

       1A    -20.629476     2A    -20.552804     3A    -11.396108  
       4A    -11.250979     5A     -1.475853     6A     -1.357486  
       7A     -1.032999     8A     -0.837930     9A     -0.703065  
      10A     -0.688465    11A     -0.657749    12A     -0.576538  
      13A     -0.569697    14A     -0.561403    15A     -0.475343  
      16A     -0.452434  

    Virtual:                                                              

      17A      0.025148    18A      0.032214    19A      0.045627  
      20A      0.047196    21A      0.055084    22A      0.055904  
      23A      0.056964    24A      0.064645    25A      0.085798  
      26A      0.098769    27A      0.104947    28A      0.112566  
      29A      0.117323    30A      0.117785    31A      0.117857  
      32A      0.140545    33A      0.140800    34A      0.141768  
      35A      0.147262    36A      0.151976    37A      0.156356  
      38A      0.164577    39A      0.171320    40A      0.176745  
      41A      0.196303    42A      0.205984    43A      0.209237  
      44A      0.214967    45A      0.226643    46A      0.233376  
      47A      0.234963    48A      0.244455    49A      0.260661  
      50A      0.265181    51A      0.270849    52A      0.277088  
      53A      0.285837    54A      0.290295    55A      0.295802  
      56A      0.319834    57A      0.322781    58A      0.332695  
      59A      0.336619    60A      0.347275    61A      0.369886  
      62A      0.370652    63A      0.378870    64A      0.394119  
      65A      0.399705    66A      0.401429    67A      0.410181  
      68A      0.426690    69A      0.431542    70A      0.438218  
      71A      0.438313    72A      0.442006    73A      0.460796  
      74A      0.475555    75A      0.490611    76A      0.492357  
      77A      0.497679    78A      0.516916    79A      0.524763  
      80A      0.537262    81A      0.542118    82A      0.543987  
      83A      0.553487    84A      0.560032    85A      0.569740  
      86A      0.583791    87A      0.587204    88A      0.602101  
      89A      0.616710    90A      0.618231    91A      0.636647  
      92A      0.637473    93A      0.640311    94A      0.649301  
      95A      0.666705    96A      0.675526    97A      0.684210  
      98A      0.690362    99A      0.697190   100A      0.701231  
     101A      0.703571   102A      0.728530   103A      0.733289  
     104A      0.742748   105A      0.754056   106A      0.760736  
     107A      0.787549   108A      0.798460   109A      0.816187  
     110A      0.820524   111A      0.848640   112A      0.853581  
     113A      0.876833   114A      0.888620   115A      0.896795  
     116A      0.912403   117A      0.948028   118A      0.949697  
     119A      0.954375   120A      0.958515   121A      0.976310  
     122A      0.983144   123A      1.038369   124A      1.041547  
     125A      1.045587   126A      1.088819   127A      1.101839  
     128A      1.106810   129A      1.118367   130A      1.157520  
     131A      1.162960   132A      1.172141   133A      1.176359  
     134A      1.191259   135A      1.236033   136A      1.261035  
     137A      1.270629   138A      1.272187   139A      1.319230  
     140A      1.329957   141A      1.358181   142A      1.384490  
     143A      1.390440   144A      1.396627   145A      1.412451  
     146A      1.435079   147A      1.458720   148A      1.462795  
     149A      1.467976   150A      1.468028   151A      1.469903  
     152A      1.537928   153A      1.546014   154A      1.569686  
     155A      1.635048   156A      1.649915   157A      1.684091  
     158A      1.715101   159A      1.717876   160A      1.755800  
     161A      1.772884   162A      1.800377   163A      1.848039  
     164A      1.865503   165A      1.883315   166A      1.883811  
     167A      1.937455   168A      1.966454   169A      1.979453  
     170A      2.026298   171A      2.037642   172A      2.071212  
     173A      2.122848   174A      2.172049   175A      2.193137  
     176A      2.244771   177A      2.251359   178A      2.253643  
     179A      2.265383   180A      2.272354   181A      2.274346  
     182A      2.303429   183A      2.312246   184A      2.337062  
     185A      2.339555   186A      2.362560   187A      2.376967  
     188A      2.379604   189A      2.430330   190A      2.438663  
     191A      2.467579   192A      2.506239   193A      2.536303  
     194A      2.586426   195A      2.623585   196A      2.652307  
     197A      2.665122   198A      2.698772   199A      2.754811  
     200A      2.783681   201A      2.786665   202A      2.824691  
     203A      2.833647   204A      2.886121   205A      2.916433  
     206A      2.974291   207A      3.001602   208A      3.016316  
     209A      3.043187   210A      3.178935   211A      3.182924  
     212A      3.279086   213A      3.311197   214A      3.346124  
     215A      3.357383   216A      3.432005   217A      3.487225  
     218A      3.663290   219A      3.666705   220A      3.690423  
     221A      3.736441   222A      3.740572   223A      3.759662  
     224A      3.790324   225A      3.805251   226A      3.900417  
     227A      4.026645   228A      4.050368   229A      4.142340  
     230A      4.154154   231A      4.309953   232A      4.505499  
     233A      4.617414   234A      4.725475   235A      4.926467  
     236A      4.970310   237A      4.978528   238A      5.002241  
     239A      5.017398   240A      5.034259   241A      5.053049  
     242A      5.222570   243A      5.244759   244A      5.615729  
     245A      5.661754   246A      5.791869   247A      5.869619  
     248A      6.053369   249A      6.229443   250A      6.521311  
     251A      6.790815   252A      7.093532   253A     18.346824  
     254A     18.941324   255A     33.526136   256A     33.564103  

    Final Occupation by Irrep:
              A 
    DOCC [    16 ]

  @DF-RHF Final Energy:  -227.84408589654419

   => Energetics <=

    Nuclear Repulsion Energy =            121.7484302109716197
    One-Electron Energy =                -552.7483714448339924
    Two-Electron Energy =                 203.1558553373182008
    Total Energy =                       -227.8440858965441862

Computation Completed


Properties will be evaluated at   0.000000,   0.000000,   0.000000 [a0]

Properties computed using the SCF density matrix

  Nuclear Dipole Moment: [e a0]
     X:   -98.5925      Y:    72.5259      Z:    62.6670

  Electronic Dipole Moment: [e a0]
     X:    99.4206      Y:   -72.8088      Z:   -62.7502

  Dipole Moment: [e a0]
     X:     0.8281      Y:    -0.2829      Z:    -0.0832     Total:     0.8790

  Dipole Moment: [D]
     X:     2.1048      Y:    -0.7191      Z:    -0.2116     Total:     2.2342


*** tstop() called on ds1 at Wed Sep  1 13:16:59 2021
Module time:
	user time   =      10.39 seconds =       0.17 minutes
	system time =       0.20 seconds =       0.00 minutes
	total time  =          3 seconds =       0.05 minutes
Total time:
	user time   =      24.95 seconds =       0.42 minutes
	system time =       0.60 seconds =       0.01 minutes
	total time  =          6 seconds =       0.10 minutes

  //>>>>>>>>>>>>>>>>>>>>>>>>>>>>>>>>>>>//
  //            Monomer B HF           //
  //<<<<<<<<<<<<<<<<<<<<<<<<<<<<<<<<<<<//


*** tstart() called on ds1
*** at Wed Sep  1 13:16:59 2021

   => Loading Basis Set <=

    Name: AUG-CC-PVDZ
    Role: ORBITAL
    Keyword: BASIS
    atoms 1-2, 9-10  entry O          line   254 file /theoryfs2/ds/csargent/miniconda3/envs/cle/share/psi4/basis/aug-cc-pvdz.gbs 
    atoms 3-6, 11-14 entry H          line    40 file /theoryfs2/ds/csargent/miniconda3/envs/cle/share/psi4/basis/aug-cc-pvdz.gbs 
    atoms 7-8, 15-16 entry C          line   182 file /theoryfs2/ds/csargent/miniconda3/envs/cle/share/psi4/basis/aug-cc-pvdz.gbs 


         ---------------------------------------------------------
                                   SCF
               by Justin Turney, Rob Parrish, Andy Simmonett
                          and Daniel G. A. Smith
                              RHF Reference
                        6 Threads,   6675 MiB Core
         ---------------------------------------------------------

  ==> Geometry <==

    Molecular point group: c1
    Full point group: C1

    Geometry (in Bohr), charge = 0, multiplicity = 1:

       Center              X                  Y                   Z               Mass       
    ------------   -----------------  -----------------  -----------------  -----------------
      Gh(O)          -5.531022370000     2.939402900000     1.977626240000    15.994914619570
      Gh(O)          -2.407088860000     0.908177340000     0.049059090000    15.994914619570
      Gh(H)          -0.503048870000     1.375792050000     4.638809080000     1.007825032230
      Gh(H)           0.000000000000     4.251042850000     3.090722380000     1.007825032230
      Gh(H)          -2.389482150000     4.019167790000     5.401950410000     1.007825032230
      Gh(H)          -3.747714110000     0.471479300000    -1.215575120000     1.007825032230
      Gh(C)          -1.418597820000     2.985005000000     3.844051900000    12.000000000000
      Gh(C)          -3.322637810000     2.286288140000     1.912214130000    12.000000000000
         O          -30.537581900000   -16.383519160000    -3.473383250000    15.994914619570
         O          -33.661515410000   -18.414744730000    -5.401950410000    15.994914619570
         H          -35.565555400000   -17.947130010000    -0.812200410000     1.007825032230
         H          -36.068604270000   -15.071879210000    -2.360287110000     1.007825032230
         H          -33.679122120000   -15.303754270000    -0.049059090000     1.007825032230
         H          -32.320890160000   -18.851442770000    -6.666584610000     1.007825032230
         C          -34.650006440000   -16.337917060000    -1.606957600000    12.000000000000
         C          -32.745966460000   -17.036633930000    -3.538795360000    12.000000000000

  Running in c1 symmetry.

  Rotational constants: A =      0.04395  B =      0.00072  C =      0.00071 [cm^-1]
  Rotational constants: A =   1317.49252  B =     21.55370  C =     21.25662 [MHz]
  Nuclear repulsion =  121.748430168523981

  Charge       = 0
  Multiplicity = 1
  Electrons    = 32
  Nalpha       = 16
  Nbeta        = 16

  ==> Algorithm <==

  SCF Algorithm Type is DF.
  DIIS enabled.
  MOM disabled.
  Fractional occupation disabled.
  Guess Type is SAD.
  Energy threshold   = 1.00e-10
  Density threshold  = 1.00e-10
  Integral threshold = 1.00e-12

  ==> Primary Basis <==

  Basis Set: AUG-CC-PVDZ
    Blend: AUG-CC-PVDZ
    Number of shells: 112
    Number of basis functions: 256
    Number of Cartesian functions: 272
    Spherical Harmonics?: true
    Max angular momentum: 2

   => Loading Basis Set <=

    Name: (AUG-CC-PVDZ AUX)
    Role: JKFIT
    Keyword: DF_BASIS_SCF
    atoms 1-2, 9-10  entry O          line   270 file /theoryfs2/ds/csargent/miniconda3/envs/cle/share/psi4/basis/aug-cc-pvdz-jkfit.gbs 
    atoms 3-6, 11-14 entry H          line    70 file /theoryfs2/ds/csargent/miniconda3/envs/cle/share/psi4/basis/aug-cc-pvdz-jkfit.gbs 
    atoms 7-8, 15-16 entry C          line   154 file /theoryfs2/ds/csargent/miniconda3/envs/cle/share/psi4/basis/aug-cc-pvdz-jkfit.gbs 

  ==> Integral Setup <==

  ==> DiskDFJK: Density-Fitted J/K Matrices <==

    J tasked:                  Yes
    K tasked:                  Yes
    wK tasked:                  No
    OpenMP threads:              6
    Integrals threads:           6
    Memory [MiB]:             5006
    Algorithm:                Core
    Integral Cache:           LOAD
    Schwarz Cutoff:          1E-12
    Fitting Condition:       1E-10

   => Auxiliary Basis Set <=

  Basis Set: (AUG-CC-PVDZ AUX)
    Blend: AUG-CC-PVDZ-JKFIT
    Number of shells: 320
    Number of basis functions: 944
    Number of Cartesian functions: 1088
    Spherical Harmonics?: true
    Max angular momentum: 3

  Minimum eigenvalue in the overlap matrix is 1.0277545292E-04.
  Reciprocal condition number of the overlap matrix is 9.6539154787E-06.
    Using symmetric orthogonalization.

  ==> Pre-Iterations <==

  SCF Guess: Superposition of Atomic Densities via on-the-fly atomic UHF (no occupation information).

   -------------------------
    Irrep   Nso     Nmo    
   -------------------------
     A        256     256 
   -------------------------
    Total     256     256
   -------------------------

  ==> Iterations <==

                           Total Energy        Delta E     RMS |[F,P]|

   @DF-RHF iter SAD:  -226.98992942610019   -2.26990e+02   0.00000e+00 
   @DF-RHF iter   1:  -227.68091168072945   -6.90982e-01   2.28211e-03 DIIS
   @DF-RHF iter   2:  -227.80091445374390   -1.20003e-01   1.32478e-03 DIIS
   @DF-RHF iter   3:  -227.84131987312372   -4.04054e-02   2.33581e-04 DIIS
   @DF-RHF iter   4:  -227.84355633667147   -2.23646e-03   1.03339e-04 DIIS
   @DF-RHF iter   5:  -227.84403723767599   -4.80901e-04   2.42136e-05 DIIS
   @DF-RHF iter   6:  -227.84407440567327   -3.71680e-05   1.17797e-05 DIIS
   @DF-RHF iter   7:  -227.84408419379889   -9.78813e-06   3.84272e-06 DIIS
   @DF-RHF iter   8:  -227.84408577538579   -1.58159e-06   1.01577e-06 DIIS
   @DF-RHF iter   9:  -227.84408589203591   -1.16650e-07   2.12954e-07 DIIS
   @DF-RHF iter  10:  -227.84408589585672   -3.82082e-09   5.61608e-08 DIIS
   @DF-RHF iter  11:  -227.84408589605988   -2.03158e-10   1.80147e-08 DIIS
   @DF-RHF iter  12:  -227.84408589608182   -2.19416e-11   4.26466e-09 DIIS
   @DF-RHF iter  13:  -227.84408589608341   -1.59162e-12   8.93569e-10 DIIS
   @DF-RHF iter  14:  -227.84408589608373   -3.12639e-13   2.86710e-10 DIIS
   @DF-RHF iter  15:  -227.84408589608378   -5.68434e-14   1.08058e-10 DIIS
   @DF-RHF iter  16:  -227.84408589608378    0.00000e+00   2.86095e-11 DIIS
  Energy and wave function converged.


  ==> Post-Iterations <==

    Orbital Energies [Eh]
    ---------------------

    Doubly Occupied:                                                      

       1A    -20.629476     2A    -20.552804     3A    -11.396108  
       4A    -11.250979     5A     -1.475853     6A     -1.357486  
       7A     -1.032999     8A     -0.837930     9A     -0.703065  
      10A     -0.688465    11A     -0.657749    12A     -0.576538  
      13A     -0.569697    14A     -0.561403    15A     -0.475343  
      16A     -0.452434  

    Virtual:                                                              

      17A      0.025522    18A      0.032214    19A      0.045627  
      20A      0.047684    21A      0.055084    22A      0.056227  
      23A      0.057213    24A      0.064645    25A      0.086231  
      26A      0.098769    27A      0.105383    28A      0.112987  
      29A      0.117323    30A      0.117857    31A      0.118018  
      32A      0.140545    33A      0.141149    34A      0.142104  
      35A      0.147580    36A      0.151976    37A      0.156356  
      38A      0.164577    39A      0.171320    40A      0.177185  
      41A      0.196303    42A      0.206446    43A      0.209237  
      44A      0.215427    45A      0.227102    46A      0.233376  
      47A      0.234963    48A      0.244893    49A      0.261114  
      50A      0.265639    51A      0.270849    52A      0.277529  
      53A      0.286249    54A      0.290295    55A      0.295802  
      56A      0.319834    57A      0.322781    58A      0.332982  
      59A      0.336954    60A      0.347275    61A      0.370189  
      62A      0.370652    63A      0.378870    64A      0.394119  
      65A      0.400000    66A      0.401429    67A      0.410495  
      68A      0.426690    69A      0.431913    70A      0.438218  
      71A      0.438644    72A      0.442006    73A      0.461317  
      74A      0.475555    75A      0.491047    76A      0.492357  
      77A      0.498094    78A      0.517343    79A      0.524763  
      80A      0.537262    81A      0.542610    82A      0.544320  
      83A      0.553487    84A      0.560396    85A      0.569740  
      86A      0.583791    87A      0.587542    88A      0.602101  
      89A      0.617140    90A      0.618231    91A      0.637041  
      92A      0.637855    93A      0.640311    94A      0.649301  
      95A      0.666705    96A      0.675926    97A      0.684210  
      98A      0.690707    99A      0.697190   100A      0.701568  
     101A      0.703571   102A      0.728832   103A      0.733289  
     104A      0.742748   105A      0.754430   106A      0.761046  
     107A      0.787908   108A      0.798460   109A      0.816494  
     110A      0.820840   111A      0.848973   112A      0.853581  
     113A      0.876833   114A      0.888942   115A      0.897187  
     116A      0.912403   117A      0.948397   118A      0.949697  
     119A      0.954375   120A      0.958894   121A      0.976703  
     122A      0.983144   123A      1.038779   124A      1.041547  
     125A      1.046022   126A      1.088819   127A      1.101839  
     128A      1.107216   129A      1.118367   130A      1.157520  
     131A      1.163408   132A      1.172141   133A      1.176359  
     134A      1.191710   135A      1.236033   136A      1.261508  
     137A      1.271101   138A      1.272187   139A      1.319230  
     140A      1.330407   141A      1.358181   142A      1.384957  
     143A      1.390440   144A      1.397104   145A      1.412451  
     146A      1.435525   147A      1.459209   148A      1.462795  
     149A      1.467976   150A      1.468493   151A      1.470363  
     152A      1.538383   153A      1.546014   154A      1.570143  
     155A      1.635048   156A      1.649915   157A      1.684529  
     158A      1.715101   159A      1.718317   160A      1.755800  
     161A      1.772884   162A      1.800833   163A      1.848039  
     164A      1.865503   165A      1.883582   166A      1.883811  
     167A      1.937776   168A      1.966454   169A      1.979453  
     170A      2.026298   171A      2.037642   172A      2.071537  
     173A      2.122848   174A      2.172049   175A      2.193137  
     176A      2.244771   177A      2.251646   178A      2.253643  
     179A      2.265688   180A      2.272354   181A      2.274798  
     182A      2.303741   183A      2.312246   184A      2.337324  
     185A      2.339870   186A      2.362910   187A      2.377369  
     188A      2.379604   189A      2.430330   190A      2.438663  
     191A      2.468008   192A      2.506729   193A      2.536303  
     194A      2.586817   195A      2.623585   196A      2.652307  
     197A      2.665533   198A      2.699104   199A      2.755136  
     200A      2.783681   201A      2.787006   202A      2.825003  
     203A      2.833647   204A      2.886121   205A      2.916846  
     206A      2.974291   207A      3.001602   208A      3.016316  
     209A      3.043554   210A      3.178935   211A      3.183270  
     212A      3.279415   213A      3.311546   214A      3.346124  
     215A      3.357724   216A      3.432395   217A      3.487541  
     218A      3.663675   219A      3.666705   220A      3.690423  
     221A      3.736441   222A      3.741035   223A      3.759662  
     224A      3.790324   225A      3.805251   226A      3.900417  
     227A      4.027071   228A      4.050368   229A      4.142340  
     230A      4.154661   231A      4.309953   232A      4.505953  
     233A      4.617876   234A      4.725830   235A      4.926934  
     236A      4.970761   237A      4.979008   238A      5.002705  
     239A      5.017862   240A      5.034731   241A      5.053370  
     242A      5.222974   243A      5.245128   244A      5.616221  
     245A      5.662228   246A      5.792354   247A      5.870071  
     248A      6.053830   249A      6.229896   250A      6.521800  
     251A      6.791298   252A      7.093999   253A     18.347176  
     254A     18.941691   255A     33.526594   256A     33.564598  

    Final Occupation by Irrep:
              A 
    DOCC [    16 ]

  @DF-RHF Final Energy:  -227.84408589608378

   => Energetics <=

    Nuclear Repulsion Energy =            121.7484301685239814
    One-Electron Energy =                -552.7483713567703489
    Two-Electron Energy =                 203.1558552921625562
    Total Energy =                       -227.8440858960837829

Computation Completed


Properties will be evaluated at   0.000000,   0.000000,   0.000000 [a0]

Properties computed using the SCF density matrix

  Nuclear Dipole Moment: [e a0]
     X: -1055.6028      Y:  -545.8076      Z:  -111.7653

  Electronic Dipole Moment: [e a0]
     X:  1054.7747      Y:   545.5247      Z:   111.6821

  Dipole Moment: [e a0]
     X:    -0.8281      Y:    -0.2829      Z:    -0.0832     Total:     0.8790

  Dipole Moment: [D]
     X:    -2.1048      Y:    -0.7191      Z:    -0.2116     Total:     2.2342


*** tstop() called on ds1 at Wed Sep  1 13:17:01 2021
Module time:
	user time   =      10.28 seconds =       0.17 minutes
	system time =       0.15 seconds =       0.00 minutes
	total time  =          2 seconds =       0.03 minutes
Total time:
	user time   =      35.43 seconds =       0.59 minutes
	system time =       0.75 seconds =       0.01 minutes
	total time  =          8 seconds =       0.13 minutes
  Constructing Basis Sets for SAPT...

   => Loading Basis Set <=

    Name: (AUG-CC-PVDZ AUX)
    Role: RIFIT
    Keyword: DF_BASIS_SAPT
    atoms 1-2, 9-10  entry O          line   204 file /theoryfs2/ds/csargent/miniconda3/envs/cle/share/psi4/basis/aug-cc-pvdz-ri.gbs 
    atoms 3-6, 11-14 entry H          line    30 file /theoryfs2/ds/csargent/miniconda3/envs/cle/share/psi4/basis/aug-cc-pvdz-ri.gbs 
    atoms 7-8, 15-16 entry C          line   112 file /theoryfs2/ds/csargent/miniconda3/envs/cle/share/psi4/basis/aug-cc-pvdz-ri.gbs 


  //>>>>>>>>>>>>>>>>>>>>>>>>>>>>>>>>>>>//
  //               SAPT0               //
  //<<<<<<<<<<<<<<<<<<<<<<<<<<<<<<<<<<<//


*** tstart() called on ds1
*** at Wed Sep  1 13:17:01 2021

        SAPT0  
    Ed Hohenstein
     6 June 2009

      Orbital Information
  --------------------------
    NSO        =       256
    NMO        =       256
    NRI        =       760
    NOCC A     =        16
    NOCC B     =        16
    FOCC A     =         4
    FOCC B     =         4
    NVIR A     =       240
    NVIR B     =       240

    Elst10,r            =     0.000016631690 [Eh]
    Exch10              =    -0.000000000000 [Eh]
    Exch10 (S^2)        =    -0.000000000000 [Eh]

    Iter     Energy [mEh]          dE [mEh]         Residual      Time [s]
       1      -0.00003072       0.000030725       0.045328086             0
       2      -0.00003186       0.000001132       0.019050746             0
       3      -0.00003455       0.000002695       0.007242612             0
       4      -0.00003518       0.000000632       0.001661668             0
       5      -0.00003500      -0.000000183       0.000624538             0
       6      -0.00003500      -0.000000002       0.000218131             0
       7      -0.00003501       0.000000012       0.000074050             0
       8      -0.00003501       0.000000001       0.000021133             0
       9      -0.00003501      -0.000000001       0.000005995             0
      10      -0.00003501      -0.000000000       0.000001386             0
      11      -0.00003501       0.000000000       0.000000332             0

    CHF Iterations converged


    Iter     Energy [mEh]          dE [mEh]         Residual      Time [s]
       1      -0.00001257       0.000012571       0.029289117             1
       2      -0.00001284       0.000000266       0.011884083             1
       3      -0.00001391       0.000001072       0.004135927             1
       4      -0.00001414       0.000000233       0.000921099             1
       5      -0.00001410      -0.000000039       0.000522531             1
       6      -0.00001409      -0.000000016       0.000162180             1
       7      -0.00001409       0.000000005       0.000051682             1
       8      -0.00001409       0.000000001       0.000012106             1
       9      -0.00001409      -0.000000000       0.000003654             1
      10      -0.00001409      -0.000000000       0.000001200             1
      11      -0.00001409       0.000000000       0.000000464             1

    CHF Iterations converged

    Ind20,r (A<-B)      =    -0.000000035010 [Eh]
    Ind20,r (B<-A)      =    -0.000000014092 [Eh]
    Ind20,r             =    -0.000000049102 [Eh]
    Exch-Ind20,r (A<-B) =     0.000000000000 [Eh]
    Exch-Ind20,r (B<-A) =     0.000000000000 [Eh]
    Exch-Ind20,r        =     0.000000000000 [Eh]
    Disp20              =    -0.000000267306 [Eh]
    Disp20 (SS)         =    -0.000000133653 [Eh]
    Disp20 (OS)         =    -0.000000133653 [Eh]
    Exch-Disp20         =     0.000000000000 [Eh]
    Exch-Disp20 (SS)    =     0.000000000000 [Eh]
    Exch-Disp20 (OS)    =     0.000000000000 [Eh]

    SAPT Results 
  --------------------------------------------------------------------------------------------------------
    Electrostatics                  0.01663169 [mEh]       0.01043654 [kcal/mol]       0.04366650 [kJ/mol]
      Elst10,r                      0.01663169 [mEh]       0.01043654 [kcal/mol]       0.04366650 [kJ/mol]

    Exchange                       -0.00000000 [mEh]      -0.00000000 [kcal/mol]      -0.00000000 [kJ/mol]
      Exch10                       -0.00000000 [mEh]      -0.00000000 [kcal/mol]      -0.00000000 [kJ/mol]
      Exch10(S^2)                  -0.00000000 [mEh]      -0.00000000 [kcal/mol]      -0.00000000 [kJ/mol]

    Induction                      -0.00005671 [mEh]      -0.00003558 [kcal/mol]      -0.00014888 [kJ/mol]
      Ind20,r                      -0.00004910 [mEh]      -0.00003081 [kcal/mol]      -0.00012892 [kJ/mol]
      Exch-Ind20,r                  0.00000000 [mEh]       0.00000000 [kcal/mol]       0.00000000 [kJ/mol]
      delta HF,r (2)               -0.00000760 [mEh]      -0.00000477 [kcal/mol]      -0.00001997 [kJ/mol]

    Dispersion                     -0.00026731 [mEh]      -0.00016774 [kcal/mol]      -0.00070181 [kJ/mol]
      Disp20                       -0.00026731 [mEh]      -0.00016774 [kcal/mol]      -0.00070181 [kJ/mol]
      Exch-Disp20                   0.00000000 [mEh]       0.00000000 [kcal/mol]       0.00000000 [kJ/mol]
      Disp20 (SS)                  -0.00013365 [mEh]      -0.00008387 [kcal/mol]      -0.00035091 [kJ/mol]
      Disp20 (OS)                  -0.00013365 [mEh]      -0.00008387 [kcal/mol]      -0.00035091 [kJ/mol]
      Exch-Disp20 (SS)              0.00000000 [mEh]       0.00000000 [kcal/mol]       0.00000000 [kJ/mol]
      Exch-Disp20 (OS)              0.00000000 [mEh]       0.00000000 [kcal/mol]       0.00000000 [kJ/mol]

  Total HF                          0.01657498 [mEh]       0.01040096 [kcal/mol]       0.04351761 [kJ/mol]
  Total SAPT0                       0.01630768 [mEh]       0.01023322 [kcal/mol]       0.04281580 [kJ/mol]

  Special recipe for scaled SAPT0 (see Manual):
    Electrostatics sSAPT0           0.01663169 [mEh]       0.01043654 [kcal/mol]       0.04366650 [kJ/mol]
    Exchange sSAPT0                -0.00000000 [mEh]      -0.00000000 [kcal/mol]      -0.00000000 [kJ/mol]
    Induction sSAPT0               -0.00005671 [mEh]      -0.00003558 [kcal/mol]      -0.00014888 [kJ/mol]
    Dispersion sSAPT0              -0.00026731 [mEh]      -0.00016774 [kcal/mol]      -0.00070181 [kJ/mol]
  Total sSAPT0                      0.01630768 [mEh]       0.01023322 [kcal/mol]       0.04281580 [kJ/mol]
  --------------------------------------------------------------------------------------------------------

*** tstop() called on ds1 at Wed Sep  1 13:17:07 2021
Module time:
	user time   =      27.73 seconds =       0.46 minutes
	system time =       2.43 seconds =       0.04 minutes
	total time  =          6 seconds =       0.10 minutes
Total time:
	user time   =      63.77 seconds =       1.06 minutes
	system time =       3.21 seconds =       0.05 minutes
	total time  =         14 seconds =       0.23 minutes


Warning! sapt0 does not have an associated derived wavefunction.The returned wavefunction is the dimer SCF wavefunction.


    Psi4 stopped on: Wednesday, 01 September 2021 01:17PM
    Psi4 wall time for execution: 0:00:13.98

*** Psi4 exiting successfully. Buy a developer a beer!
