
    -----------------------------------------------------------------------
          Psi4: An Open-Source Ab Initio Electronic Structure Package
                               Psi4 1.4rc3 

                         Git: Rev {HEAD} 080dba6 


    D. G. A. Smith, L. A. Burns, A. C. Simmonett, R. M. Parrish,
    M. C. Schieber, R. Galvelis, P. Kraus, H. Kruse, R. Di Remigio,
    A. Alenaizan, A. M. James, S. Lehtola, J. P. Misiewicz, M. Scheurer,
    R. A. Shaw, J. B. Schriber, Y. Xie, Z. L. Glick, D. A. Sirianni,
    J. S. O'Brien, J. M. Waldrop, A. Kumar, E. G. Hohenstein,
    B. P. Pritchard, B. R. Brooks, H. F. Schaefer III, A. Yu. Sokolov,
    K. Patkowski, A. E. DePrince III, U. Bozkaya, R. A. King,
    F. A. Evangelista, J. M. Turney, T. D. Crawford, C. D. Sherrill,
    J. Chem. Phys. 152(18) 184108 (2020). https://doi.org/10.1063/5.0006002

                            Additional Code Authors
    E. T. Seidl, C. L. Janssen, E. F. Valeev, M. L. Leininger,
    J. F. Gonthier, R. M. Richard, H. R. McAlexander, M. Saitow, X. Wang,
    P. Verma, and M. H. Lechner

             Previous Authors, Complete List of Code Contributors,
                       and Citations for Specific Modules
    https://github.com/psi4/psi4/blob/master/codemeta.json
    https://github.com/psi4/psi4/graphs/contributors
    http://psicode.org/psi4manual/master/introduction.html#citing-psifour

    -----------------------------------------------------------------------


    Psi4 started on: Wednesday, 01 September 2021 02:24PM

    Process ID: 21633
    Host:       ds1
    PSIDATADIR: /theoryfs2/ds/csargent/miniconda3/envs/cle/share/psi4
    Memory:     500.0 MiB
    Threads:    6
    
  ==> Input File <==

--------------------------------------------------------------------------
# PSI4 file produced by CrystaLattE

# Generated from:               acetic_acid.xyz
# Psithon input for N-mer:      2mer-0+104
# Number of atoms per monomer:  [8, 8]
# Number of replicas:           2
# COM priority:                 4.205762239654e-05
# Minimum COM separations:      15.217 
# Separation priority:          8.041339412824e-05
# Minimum monomer separations:  12.260 
# Cutoff priority:              3.470866085821e-06
# Nuclear repulsion energy:     279.2956067044545

memory 7 GB

molecule Dimer_0_104 {
  O           -5.53102237       2.93940290       1.97762624 
  O           -2.40708886       0.90817734       0.04905909 
  H           -0.50304887       1.37579205       4.63880908 
  H            0.00000000       4.25104285       3.09072238 
  H           -2.38948215       4.01916779       5.40195041 
  H           -3.74771411       0.47147930      -1.21557512 
  C           -1.41859782       2.98500500       3.84405190 
  C           -3.32263781       2.28628814       1.91221413 
--
  O           19.76730551     -16.38351916      -3.47338325 
  O           16.64337200     -18.41474473      -5.40195041 
  H           14.73933201     -17.94713001      -0.81220041 
  H           14.23628314     -15.07187921      -2.36028711 
  H           16.62576529     -15.30375427      -0.04905909 
  H           17.98399725     -18.85144277      -6.66658461 
  C           15.65488096     -16.33791706      -1.60695760 
  C           17.55892095     -17.03663393      -3.53879536 
units = au
no_com
no_reorient
}

set {
  e_convergence 10
  d_convergence 10
  scf_type df
  mp2_type df
  cc_type df
  freeze_core true
}

energy('sapt0/aug-cc-pvdz')

--------------------------------------------------------------------------

  Memory set to   6.519 GiB by Python driver.

Scratch directory: /scratch/csargent/psi4.17562.33784/

Scratch directory: /scratch/csargent/psi4.17562.33784/

  //>>>>>>>>>>>>>>>>>>>>>>>>>>>>>>>>>>>//
  //              Dimer HF             //
  //<<<<<<<<<<<<<<<<<<<<<<<<<<<<<<<<<<<//


*** tstart() called on ds1
*** at Wed Sep  1 14:24:58 2021

   => Loading Basis Set <=

    Name: AUG-CC-PVDZ
    Role: ORBITAL
    Keyword: BASIS
    atoms 1-2, 9-10  entry O          line   254 file /theoryfs2/ds/csargent/miniconda3/envs/cle/share/psi4/basis/aug-cc-pvdz.gbs 
    atoms 3-6, 11-14 entry H          line    40 file /theoryfs2/ds/csargent/miniconda3/envs/cle/share/psi4/basis/aug-cc-pvdz.gbs 
    atoms 7-8, 15-16 entry C          line   182 file /theoryfs2/ds/csargent/miniconda3/envs/cle/share/psi4/basis/aug-cc-pvdz.gbs 


         ---------------------------------------------------------
                                   SCF
               by Justin Turney, Rob Parrish, Andy Simmonett
                          and Daniel G. A. Smith
                              RHF Reference
                        6 Threads,   6675 MiB Core
         ---------------------------------------------------------

  ==> Geometry <==

    Molecular point group: c1
    Full point group: C1

    Geometry (in Bohr), charge = 0, multiplicity = 1:

       Center              X                  Y                   Z               Mass       
    ------------   -----------------  -----------------  -----------------  -----------------
         O           -5.531022370000     2.939402900000     1.977626240000    15.994914619570
         O           -2.407088860000     0.908177340000     0.049059090000    15.994914619570
         H           -0.503048870000     1.375792050000     4.638809080000     1.007825032230
         H            0.000000000000     4.251042850000     3.090722380000     1.007825032230
         H           -2.389482150000     4.019167790000     5.401950410000     1.007825032230
         H           -3.747714110000     0.471479300000    -1.215575120000     1.007825032230
         C           -1.418597820000     2.985005000000     3.844051900000    12.000000000000
         C           -3.322637810000     2.286288140000     1.912214130000    12.000000000000
         O           19.767305510000   -16.383519160000    -3.473383250000    15.994914619570
         O           16.643372000000   -18.414744730000    -5.401950410000    15.994914619570
         H           14.739332010000   -17.947130010000    -0.812200410000     1.007825032230
         H           14.236283140000   -15.071879210000    -2.360287110000     1.007825032230
         H           16.625765290000   -15.303754270000    -0.049059090000     1.007825032230
         H           17.983997250000   -18.851442770000    -6.666584610000     1.007825032230
         C           15.654880960000   -16.337917060000    -1.606957600000    12.000000000000
         C           17.558920950000   -17.036633930000    -3.538795360000    12.000000000000

  Running in c1 symmetry.

  Rotational constants: A =      0.10744  B =      0.00159  C =      0.00158 [cm^-1]
  Rotational constants: A =   3221.07806  B =     47.63173  C =     47.41892 [MHz]
  Nuclear repulsion =  279.295606653244647

  Charge       = 0
  Multiplicity = 1
  Electrons    = 64
  Nalpha       = 32
  Nbeta        = 32

  ==> Algorithm <==

  SCF Algorithm Type is DF.
  DIIS enabled.
  MOM disabled.
  Fractional occupation disabled.
  Guess Type is SAD.
  Energy threshold   = 1.00e-10
  Density threshold  = 1.00e-10
  Integral threshold = 1.00e-12

  ==> Primary Basis <==

  Basis Set: AUG-CC-PVDZ
    Blend: AUG-CC-PVDZ
    Number of shells: 112
    Number of basis functions: 256
    Number of Cartesian functions: 272
    Spherical Harmonics?: true
    Max angular momentum: 2

   => Loading Basis Set <=

    Name: (AUG-CC-PVDZ AUX)
    Role: JKFIT
    Keyword: DF_BASIS_SCF
    atoms 1-2, 9-10  entry O          line   270 file /theoryfs2/ds/csargent/miniconda3/envs/cle/share/psi4/basis/aug-cc-pvdz-jkfit.gbs 
    atoms 3-6, 11-14 entry H          line    70 file /theoryfs2/ds/csargent/miniconda3/envs/cle/share/psi4/basis/aug-cc-pvdz-jkfit.gbs 
    atoms 7-8, 15-16 entry C          line   154 file /theoryfs2/ds/csargent/miniconda3/envs/cle/share/psi4/basis/aug-cc-pvdz-jkfit.gbs 

  ==> Integral Setup <==

  ==> DiskDFJK: Density-Fitted J/K Matrices <==

    J tasked:                  Yes
    K tasked:                  Yes
    wK tasked:                  No
    OpenMP threads:              6
    Integrals threads:           6
    Memory [MiB]:             5006
    Algorithm:                Core
    Integral Cache:           SAVE
    Schwarz Cutoff:          1E-12
    Fitting Condition:       1E-10

   => Auxiliary Basis Set <=

  Basis Set: (AUG-CC-PVDZ AUX)
    Blend: AUG-CC-PVDZ-JKFIT
    Number of shells: 320
    Number of basis functions: 944
    Number of Cartesian functions: 1088
    Spherical Harmonics?: true
    Max angular momentum: 3

  Minimum eigenvalue in the overlap matrix is 1.0274666777E-04.
  Reciprocal condition number of the overlap matrix is 9.6511606049E-06.
    Using symmetric orthogonalization.

  ==> Pre-Iterations <==

  SCF Guess: Superposition of Atomic Densities via on-the-fly atomic UHF (no occupation information).

   -------------------------
    Irrep   Nso     Nmo    
   -------------------------
     A        256     256 
   -------------------------
    Total     256     256
   -------------------------

  ==> Iterations <==

                           Total Energy        Delta E     RMS |[F,P]|

   @DF-RHF iter SAD:  -453.97985885423594   -4.53980e+02   0.00000e+00 
   @DF-RHF iter   1:  -455.36178825442175   -1.38193e+00   3.22745e-03 DIIS
   @DF-RHF iter   2:  -455.60179102011540   -2.40003e-01   1.87377e-03 DIIS
   @DF-RHF iter   3:  -455.68262293371782   -8.08319e-02   3.30439e-04 DIIS
   @DF-RHF iter   4:  -455.68709741053101   -4.47448e-03   1.46188e-04 DIIS
   @DF-RHF iter   5:  -455.68805975638747   -9.62346e-04   3.42531e-05 DIIS
   @DF-RHF iter   6:  -455.68813413150332   -7.43751e-05   1.66623e-05 DIIS
   @DF-RHF iter   7:  -455.68815372030252   -1.95888e-05   5.43659e-06 DIIS
   @DF-RHF iter   8:  -455.68815688512916   -3.16483e-06   1.43671e-06 DIIS
   @DF-RHF iter   9:  -455.68815711849106   -2.33362e-07   3.01067e-07 DIIS
   @DF-RHF iter  10:  -455.68815712612729   -7.63623e-09   7.94067e-08 DIIS
   @DF-RHF iter  11:  -455.68815712653412   -4.06828e-10   2.54912e-08 DIIS
   @DF-RHF iter  12:  -455.68815712657806   -4.39400e-11   6.09267e-09 DIIS
   @DF-RHF iter  13:  -455.68815712658113   -3.06954e-12   1.54694e-09 DIIS
   @DF-RHF iter  14:  -455.68815712658079    3.41061e-13   8.98473e-10 DIIS
   @DF-RHF iter  15:  -455.68815712658176   -9.66338e-13   1.91861e-10 DIIS
   @DF-RHF iter  16:  -455.68815712658136    3.97904e-13   6.12485e-11 DIIS
  Energy and wave function converged.


  ==> Post-Iterations <==

    Orbital Energies [Eh]
    ---------------------

    Doubly Occupied:                                                      

       1A    -20.630155     2A    -20.630093     3A    -20.553506  
       4A    -20.553364     5A    -11.396818     6A    -11.396672  
       7A    -11.251760     8A    -11.251525     9A     -1.476540  
      10A     -1.476451    11A     -1.358181    12A     -1.358058  
      13A     -1.033756    14A     -1.033557    15A     -0.838636  
      16A     -0.838528    17A     -0.703760    18A     -0.703640  
      19A     -0.689190    20A     -0.689040    21A     -0.658466  
      22A     -0.658332    23A     -0.577250    24A     -0.577119  
      25A     -0.570446    26A     -0.570270    27A     -0.562176  
      28A     -0.561948    29A     -0.476034    30A     -0.475911  
      31A     -0.453139    32A     -0.452992  

    Virtual:                                                              

      33A      0.031263    34A      0.031775    35A      0.044909  
      36A      0.045030    37A      0.053890    38A      0.054844  
      39A      0.063796    40A      0.064235    41A      0.097991  
      42A      0.098251    43A      0.116584    44A      0.116776  
      45A      0.117155    46A      0.117279    47A      0.139841  
      48A      0.139950    49A      0.150783    50A      0.151649  
      51A      0.155222    52A      0.156238    53A      0.163733  
      54A      0.164234    55A      0.170601    56A      0.170770  
      57A      0.195546    58A      0.195749    59A      0.208581  
      60A      0.208606    61A      0.232515    62A      0.232913  
      63A      0.234232    64A      0.234415    65A      0.270078  
      66A      0.270323    67A      0.289628    68A      0.289738  
      69A      0.295038    70A      0.295226    71A      0.319140  
      72A      0.319255    73A      0.322103    74A      0.322236  
      75A      0.346501    76A      0.346740    77A      0.369942  
      78A      0.370103    79A      0.378101    80A      0.378304  
      81A      0.393387    82A      0.393558    83A      0.400489  
      84A      0.401079    85A      0.425876    86A      0.426144  
      87A      0.437415    88A      0.437658    89A      0.441235  
      90A      0.441523    91A      0.474865    92A      0.474960  
      93A      0.491501    94A      0.491893    95A      0.523991  
      96A      0.524204    97A      0.536518    98A      0.536731  
      99A      0.552661   100A      0.552994   101A      0.568969  
     102A      0.569196   103A      0.582943   104A      0.583328  
     105A      0.601391   106A      0.601508   107A      0.617495  
     108A      0.617660   109A      0.639576   110A      0.639730  
     111A      0.648540   112A      0.648749   113A      0.665957  
     114A      0.666125   115A      0.683467   116A      0.683658  
     117A      0.696439   118A      0.696646   119A      0.702791  
     120A      0.703030   121A      0.732546   122A      0.732722  
     123A      0.742010   124A      0.742184   125A      0.797682  
     126A      0.797917   127A      0.852857   128A      0.853008  
     129A      0.876128   130A      0.876272   131A      0.911695  
     132A      0.911828   133A      0.948975   134A      0.949121  
     135A      0.953647   136A      0.953807   137A      0.982425  
     138A      0.982568   139A      1.040832   140A      1.040967  
     141A      1.088045   142A      1.088279   143A      1.100938  
     144A      1.101429   145A      1.117617   146A      1.117813  
     147A      1.156768   148A      1.156991   149A      1.171434  
     150A      1.171546   151A      1.175629   152A      1.175792  
     153A      1.235312   154A      1.235436   155A      1.271474  
     156A      1.271637   157A      1.318534   158A      1.318668  
     159A      1.357469   160A      1.357626   161A      1.389661  
     162A      1.389960   163A      1.411683   164A      1.411921  
     165A      1.462109   166A      1.462222   167A      1.467294  
     168A      1.467382   169A      1.545259   170A      1.545455  
     171A      1.634324   172A      1.634480   173A      1.649199  
     174A      1.649331   175A      1.714267   176A      1.714645  
     177A      1.755065   178A      1.755234   179A      1.772116  
     180A      1.772333   181A      1.847313   182A      1.847494  
     183A      1.864745   184A      1.864944   185A      1.883027  
     186A      1.883260   187A      1.965740   188A      1.965861  
     189A      1.978749   190A      1.978882   191A      2.025515  
     192A      2.025780   193A      2.036928   194A      2.037066  
     195A      2.122133   196A      2.122272   197A      2.171315  
     198A      2.171470   199A      2.192390   200A      2.192581  
     201A      2.244009   202A      2.244221   203A      2.252905  
     204A      2.253075   205A      2.271630   206A      2.271795  
     207A      2.311518   208A      2.311671   209A      2.378850  
     210A      2.379042   211A      2.429616   212A      2.429746  
     213A      2.437910   214A      2.438102   215A      2.535557  
     216A      2.535741   217A      2.622859   218A      2.623017  
     219A      2.651533   220A      2.651759   221A      2.782930  
     222A      2.783125   223A      2.832909   224A      2.833078  
     225A      2.885357   226A      2.885569   227A      2.973553  
     228A      2.973722   229A      3.000851   230A      3.001034  
     231A      3.015585   232A      3.015744   233A      3.178165  
     234A      3.178413   235A      3.345339   236A      3.345640  
     237A      3.666023   238A      3.666091   239A      3.689742  
     240A      3.689811   241A      3.735754   242A      3.735847  
     243A      3.758970   244A      3.759099   245A      3.789632  
     246A      3.789749   247A      3.804558   248A      3.804688  
     249A      3.899726   250A      3.899832   251A      4.049675  
     252A      4.049792   253A      4.141636   254A      4.141787  
     255A      4.309269   256A      4.309341  

    Final Occupation by Irrep:
              A 
    DOCC [    32 ]

  @DF-RHF Final Energy:  -455.68815712658136

   => Energetics <=

    Nuclear Repulsion Energy =            279.2956066532446471
    One-Electron Energy =               -1177.0529002275657149
    Two-Electron Energy =                 442.0691364477396519
    Total Energy =                       -455.6881571265813591

Computation Completed


Properties will be evaluated at   0.000000,   0.000000,   0.000000 [a0]

Properties computed using the SCF density matrix

  Nuclear Dipole Moment: [e a0]
     X:   455.5611      Y:  -473.2817      Z:   -49.0983

  Electronic Dipole Moment: [e a0]
     X:  -455.5607      Y:   472.7164      Z:    48.9317

  Dipole Moment: [e a0]
     X:     0.0003      Y:    -0.5654      Z:    -0.1666     Total:     0.5894

  Dipole Moment: [D]
     X:     0.0008      Y:    -1.4370      Z:    -0.4235     Total:     1.4981


*** tstop() called on ds1 at Wed Sep  1 14:25:01 2021
Module time:
	user time   =      14.93 seconds =       0.25 minutes
	system time =       0.42 seconds =       0.01 minutes
	total time  =          3 seconds =       0.05 minutes
Total time:
	user time   =      14.93 seconds =       0.25 minutes
	system time =       0.42 seconds =       0.01 minutes
	total time  =          3 seconds =       0.05 minutes

  //>>>>>>>>>>>>>>>>>>>>>>>>>>>>>>>>>>>//
  //            Monomer A HF           //
  //<<<<<<<<<<<<<<<<<<<<<<<<<<<<<<<<<<<//


*** tstart() called on ds1
*** at Wed Sep  1 14:25:01 2021

   => Loading Basis Set <=

    Name: AUG-CC-PVDZ
    Role: ORBITAL
    Keyword: BASIS
    atoms 1-2, 9-10  entry O          line   254 file /theoryfs2/ds/csargent/miniconda3/envs/cle/share/psi4/basis/aug-cc-pvdz.gbs 
    atoms 3-6, 11-14 entry H          line    40 file /theoryfs2/ds/csargent/miniconda3/envs/cle/share/psi4/basis/aug-cc-pvdz.gbs 
    atoms 7-8, 15-16 entry C          line   182 file /theoryfs2/ds/csargent/miniconda3/envs/cle/share/psi4/basis/aug-cc-pvdz.gbs 


         ---------------------------------------------------------
                                   SCF
               by Justin Turney, Rob Parrish, Andy Simmonett
                          and Daniel G. A. Smith
                              RHF Reference
                        6 Threads,   6675 MiB Core
         ---------------------------------------------------------

  ==> Geometry <==

    Molecular point group: c1
    Full point group: C1

    Geometry (in Bohr), charge = 0, multiplicity = 1:

       Center              X                  Y                   Z               Mass       
    ------------   -----------------  -----------------  -----------------  -----------------
         O           -5.531022370000     2.939402900000     1.977626240000    15.994914619570
         O           -2.407088860000     0.908177340000     0.049059090000    15.994914619570
         H           -0.503048870000     1.375792050000     4.638809080000     1.007825032230
         H            0.000000000000     4.251042850000     3.090722380000     1.007825032230
         H           -2.389482150000     4.019167790000     5.401950410000     1.007825032230
         H           -3.747714110000     0.471479300000    -1.215575120000     1.007825032230
         C           -1.418597820000     2.985005000000     3.844051900000    12.000000000000
         C           -3.322637810000     2.286288140000     1.912214130000    12.000000000000
      Gh(O)          19.767305510000   -16.383519160000    -3.473383250000    15.994914619570
      Gh(O)          16.643372000000   -18.414744730000    -5.401950410000    15.994914619570
      Gh(H)          14.739332010000   -17.947130010000    -0.812200410000     1.007825032230
      Gh(H)          14.236283140000   -15.071879210000    -2.360287110000     1.007825032230
      Gh(H)          16.625765290000   -15.303754270000    -0.049059090000     1.007825032230
      Gh(H)          17.983997250000   -18.851442770000    -6.666584610000     1.007825032230
      Gh(C)          15.654880960000   -16.337917060000    -1.606957600000    12.000000000000
      Gh(C)          17.558920950000   -17.036633930000    -3.538795360000    12.000000000000

  Running in c1 symmetry.

  Rotational constants: A =      0.10744  B =      0.00159  C =      0.00158 [cm^-1]
  Rotational constants: A =   3221.07806  B =     47.63173  C =     47.41892 [MHz]
  Nuclear repulsion =  121.748430210971620

  Charge       = 0
  Multiplicity = 1
  Electrons    = 32
  Nalpha       = 16
  Nbeta        = 16

  ==> Algorithm <==

  SCF Algorithm Type is DF.
  DIIS enabled.
  MOM disabled.
  Fractional occupation disabled.
  Guess Type is SAD.
  Energy threshold   = 1.00e-10
  Density threshold  = 1.00e-10
  Integral threshold = 1.00e-12

  ==> Primary Basis <==

  Basis Set: AUG-CC-PVDZ
    Blend: AUG-CC-PVDZ
    Number of shells: 112
    Number of basis functions: 256
    Number of Cartesian functions: 272
    Spherical Harmonics?: true
    Max angular momentum: 2

   => Loading Basis Set <=

    Name: (AUG-CC-PVDZ AUX)
    Role: JKFIT
    Keyword: DF_BASIS_SCF
    atoms 1-2, 9-10  entry O          line   270 file /theoryfs2/ds/csargent/miniconda3/envs/cle/share/psi4/basis/aug-cc-pvdz-jkfit.gbs 
    atoms 3-6, 11-14 entry H          line    70 file /theoryfs2/ds/csargent/miniconda3/envs/cle/share/psi4/basis/aug-cc-pvdz-jkfit.gbs 
    atoms 7-8, 15-16 entry C          line   154 file /theoryfs2/ds/csargent/miniconda3/envs/cle/share/psi4/basis/aug-cc-pvdz-jkfit.gbs 

  ==> Integral Setup <==

  ==> DiskDFJK: Density-Fitted J/K Matrices <==

    J tasked:                  Yes
    K tasked:                  Yes
    wK tasked:                  No
    OpenMP threads:              6
    Integrals threads:           6
    Memory [MiB]:             5006
    Algorithm:                Core
    Integral Cache:           LOAD
    Schwarz Cutoff:          1E-12
    Fitting Condition:       1E-10

   => Auxiliary Basis Set <=

  Basis Set: (AUG-CC-PVDZ AUX)
    Blend: AUG-CC-PVDZ-JKFIT
    Number of shells: 320
    Number of basis functions: 944
    Number of Cartesian functions: 1088
    Spherical Harmonics?: true
    Max angular momentum: 3

  Minimum eigenvalue in the overlap matrix is 1.0274666777E-04.
  Reciprocal condition number of the overlap matrix is 9.6511606049E-06.
    Using symmetric orthogonalization.

  ==> Pre-Iterations <==

  SCF Guess: Superposition of Atomic Densities via on-the-fly atomic UHF (no occupation information).

   -------------------------
    Irrep   Nso     Nmo    
   -------------------------
     A        256     256 
   -------------------------
    Total     256     256
   -------------------------

  ==> Iterations <==

                           Total Energy        Delta E     RMS |[F,P]|

   @DF-RHF iter SAD:  -226.98992943019525   -2.26990e+02   0.00000e+00 
   @DF-RHF iter   1:  -227.68091167831915   -6.90982e-01   2.28211e-03 DIIS
   @DF-RHF iter   2:  -227.80091445252228   -1.20003e-01   1.32478e-03 DIIS
   @DF-RHF iter   3:  -227.84131987211660   -4.04054e-02   2.33581e-04 DIIS
   @DF-RHF iter   4:  -227.84355633563240   -2.23646e-03   1.03339e-04 DIIS
   @DF-RHF iter   5:  -227.84403723664275   -4.80901e-04   2.42136e-05 DIIS
   @DF-RHF iter   6:  -227.84407440464048   -3.71680e-05   1.17797e-05 DIIS
   @DF-RHF iter   7:  -227.84408419276656   -9.78813e-06   3.84272e-06 DIIS
   @DF-RHF iter   8:  -227.84408577435298   -1.58159e-06   1.01577e-06 DIIS
   @DF-RHF iter   9:  -227.84408589100329   -1.16650e-07   2.12954e-07 DIIS
   @DF-RHF iter  10:  -227.84408589482416   -3.82087e-09   5.61608e-08 DIIS
   @DF-RHF iter  11:  -227.84408589502783   -2.03670e-10   1.80147e-08 DIIS
   @DF-RHF iter  12:  -227.84408589504960   -2.17710e-11   4.26466e-09 DIIS
   @DF-RHF iter  13:  -227.84408589505108   -1.47793e-12   8.93569e-10 DIIS
   @DF-RHF iter  14:  -227.84408589505131   -2.27374e-13   2.86710e-10 DIIS
   @DF-RHF iter  15:  -227.84408589505153   -2.27374e-13   1.08058e-10 DIIS
   @DF-RHF iter  16:  -227.84408589505119    3.41061e-13   2.86097e-11 DIIS
  Energy and wave function converged.


  ==> Post-Iterations <==

    Orbital Energies [Eh]
    ---------------------

    Doubly Occupied:                                                      

       1A    -20.629476     2A    -20.552804     3A    -11.396108  
       4A    -11.250979     5A     -1.475853     6A     -1.357486  
       7A     -1.032999     8A     -0.837930     9A     -0.703065  
      10A     -0.688465    11A     -0.657749    12A     -0.576538  
      13A     -0.569697    14A     -0.561403    15A     -0.475343  
      16A     -0.452434  

    Virtual:                                                              

      17A      0.024007    18A      0.032200    19A      0.045623  
      20A      0.046151    21A      0.054459    22A      0.055264  
      23A      0.055800    24A      0.064662    25A      0.084706  
      26A      0.098769    27A      0.103864    28A      0.111446  
      29A      0.116506    30A      0.117330    31A      0.117856  
      32A      0.139628    33A      0.140216    34A      0.140891  
      35A      0.146038    36A      0.152067    37A      0.156399  
      38A      0.164579    39A      0.171323    40A      0.175654  
      41A      0.196303    42A      0.204962    43A      0.209237  
      44A      0.213921    45A      0.225593    46A      0.233376  
      47A      0.234963    48A      0.243374    49A      0.259600  
      50A      0.264119    51A      0.270852    52A      0.275997  
      53A      0.284756    54A      0.290297    55A      0.295803  
      56A      0.319836    57A      0.322781    58A      0.331483  
      59A      0.335469    60A      0.347276    61A      0.368680  
      62A      0.370652    63A      0.378870    64A      0.394119  
      65A      0.398477    66A      0.401447    67A      0.408991  
      68A      0.426690    69A      0.430399    70A      0.437038  
      71A      0.438337    72A      0.442010    73A      0.459803  
      74A      0.475555    75A      0.489534    76A      0.492363  
      77A      0.496590    78A      0.515829    79A      0.524763  
      80A      0.537262    81A      0.541106    82A      0.542816  
      83A      0.553489    84A      0.558883    85A      0.569741  
      86A      0.583791    87A      0.586042    88A      0.602103  
      89A      0.615634    90A      0.618232    91A      0.635527  
      92A      0.636349    93A      0.640311    94A      0.649301  
      95A      0.666705    96A      0.674422    97A      0.684210  
      98A      0.689192    99A      0.697190   100A      0.700057  
     101A      0.703573   102A      0.727323   103A      0.733289  
     104A      0.742748   105A      0.752917   106A      0.759545  
     107A      0.786405   108A      0.798460   109A      0.814991  
     110A      0.819335   111A      0.847475   112A      0.853583  
     113A      0.876834   114A      0.887434   115A      0.895675  
     116A      0.912404   117A      0.946879   118A      0.949697  
     119A      0.954377   120A      0.957382   121A      0.975190  
     122A      0.983144   123A      1.037263   124A      1.041547  
     125A      1.044510   126A      1.088819   127A      1.101844  
     128A      1.105701   129A      1.118367   130A      1.157520  
     131A      1.161899   132A      1.172141   133A      1.176359  
     134A      1.190202   135A      1.236033   136A      1.259990  
     137A      1.269580   138A      1.272188   139A      1.319230  
     140A      1.328896   141A      1.358181   142A      1.383434  
     143A      1.390444   144A      1.395590   145A      1.412453  
     146A      1.433998   147A      1.457698   148A      1.462795  
     149A      1.466980   150A      1.467976   151A      1.468854  
     152A      1.536870   153A      1.546014   154A      1.568628  
     155A      1.635048   156A      1.649916   157A      1.683021  
     158A      1.715104   159A      1.716797   160A      1.755800  
     161A      1.772884   162A      1.799318   163A      1.848040  
     164A      1.865503   165A      1.882083   166A      1.883811  
     167A      1.936271   168A      1.966454   169A      1.979453  
     170A      2.026302   171A      2.037642   172A      2.070032  
     173A      2.122849   174A      2.172049   175A      2.193138  
     176A      2.244771   177A      2.250134   178A      2.253644  
     179A      2.264188   180A      2.272354   181A      2.273283  
     182A      2.302237   183A      2.312246   184A      2.335813  
     185A      2.338373   186A      2.361406   187A      2.375858  
     188A      2.379604   189A      2.430331   190A      2.438663  
     191A      2.466497   192A      2.505219   193A      2.536303  
     194A      2.585306   195A      2.623585   196A      2.652307  
     197A      2.664025   198A      2.697604   199A      2.753630  
     200A      2.783681   201A      2.785501   202A      2.823490  
     203A      2.833647   204A      2.886121   205A      2.915338  
     206A      2.974292   207A      3.001604   208A      3.016316  
     209A      3.042046   210A      3.178937   211A      3.181761  
     212A      3.277915   213A      3.310037   214A      3.346129  
     215A      3.356215   216A      3.430884   217A      3.486037  
     218A      3.662162   219A      3.666705   220A      3.690423  
     221A      3.736441   222A      3.739528   223A      3.759662  
     224A      3.790324   225A      3.805251   226A      3.900417  
     227A      4.025547   228A      4.050368   229A      4.142342  
     230A      4.153157   231A      4.309953   232A      4.504429  
     233A      4.616367   234A      4.724319   235A      4.925411  
     236A      4.969239   237A      4.977503   238A      5.001174  
     239A      5.016351   240A      5.033226   241A      5.051859  
     242A      5.221455   243A      5.243618   244A      5.614723  
     245A      5.660721   246A      5.790842   247A      5.868545  
     248A      6.052310   249A      6.228366   250A      6.520298  
     251A      6.789789   252A      7.092479   253A     18.345667  
     254A     18.940182   255A     33.525060   256A     33.563101  

    Final Occupation by Irrep:
              A 
    DOCC [    16 ]

  @DF-RHF Final Energy:  -227.84408589505119

   => Energetics <=

    Nuclear Repulsion Energy =            121.7484302109716197
    One-Electron Energy =                -552.7483714320413810
    Two-Electron Energy =                 203.1558553260185818
    Total Energy =                       -227.8440858950511938

Computation Completed


Properties will be evaluated at   0.000000,   0.000000,   0.000000 [a0]

Properties computed using the SCF density matrix

  Nuclear Dipole Moment: [e a0]
     X:   -98.5925      Y:    72.5259      Z:    62.6670

  Electronic Dipole Moment: [e a0]
     X:    99.4206      Y:   -72.8088      Z:   -62.7502

  Dipole Moment: [e a0]
     X:     0.8281      Y:    -0.2829      Z:    -0.0832     Total:     0.8790

  Dipole Moment: [D]
     X:     2.1048      Y:    -0.7191      Z:    -0.2116     Total:     2.2342


*** tstop() called on ds1 at Wed Sep  1 14:25:04 2021
Module time:
	user time   =      11.00 seconds =       0.18 minutes
	system time =       0.18 seconds =       0.00 minutes
	total time  =          3 seconds =       0.05 minutes
Total time:
	user time   =      26.07 seconds =       0.43 minutes
	system time =       0.60 seconds =       0.01 minutes
	total time  =          6 seconds =       0.10 minutes

  //>>>>>>>>>>>>>>>>>>>>>>>>>>>>>>>>>>>//
  //            Monomer B HF           //
  //<<<<<<<<<<<<<<<<<<<<<<<<<<<<<<<<<<<//


*** tstart() called on ds1
*** at Wed Sep  1 14:25:04 2021

   => Loading Basis Set <=

    Name: AUG-CC-PVDZ
    Role: ORBITAL
    Keyword: BASIS
    atoms 1-2, 9-10  entry O          line   254 file /theoryfs2/ds/csargent/miniconda3/envs/cle/share/psi4/basis/aug-cc-pvdz.gbs 
    atoms 3-6, 11-14 entry H          line    40 file /theoryfs2/ds/csargent/miniconda3/envs/cle/share/psi4/basis/aug-cc-pvdz.gbs 
    atoms 7-8, 15-16 entry C          line   182 file /theoryfs2/ds/csargent/miniconda3/envs/cle/share/psi4/basis/aug-cc-pvdz.gbs 


         ---------------------------------------------------------
                                   SCF
               by Justin Turney, Rob Parrish, Andy Simmonett
                          and Daniel G. A. Smith
                              RHF Reference
                        6 Threads,   6675 MiB Core
         ---------------------------------------------------------

  ==> Geometry <==

    Molecular point group: c1
    Full point group: C1

    Geometry (in Bohr), charge = 0, multiplicity = 1:

       Center              X                  Y                   Z               Mass       
    ------------   -----------------  -----------------  -----------------  -----------------
      Gh(O)          -5.531022370000     2.939402900000     1.977626240000    15.994914619570
      Gh(O)          -2.407088860000     0.908177340000     0.049059090000    15.994914619570
      Gh(H)          -0.503048870000     1.375792050000     4.638809080000     1.007825032230
      Gh(H)           0.000000000000     4.251042850000     3.090722380000     1.007825032230
      Gh(H)          -2.389482150000     4.019167790000     5.401950410000     1.007825032230
      Gh(H)          -3.747714110000     0.471479300000    -1.215575120000     1.007825032230
      Gh(C)          -1.418597820000     2.985005000000     3.844051900000    12.000000000000
      Gh(C)          -3.322637810000     2.286288140000     1.912214130000    12.000000000000
         O           19.767305510000   -16.383519160000    -3.473383250000    15.994914619570
         O           16.643372000000   -18.414744730000    -5.401950410000    15.994914619570
         H           14.739332010000   -17.947130010000    -0.812200410000     1.007825032230
         H           14.236283140000   -15.071879210000    -2.360287110000     1.007825032230
         H           16.625765290000   -15.303754270000    -0.049059090000     1.007825032230
         H           17.983997250000   -18.851442770000    -6.666584610000     1.007825032230
         C           15.654880960000   -16.337917060000    -1.606957600000    12.000000000000
         C           17.558920950000   -17.036633930000    -3.538795360000    12.000000000000

  Running in c1 symmetry.

  Rotational constants: A =      0.10744  B =      0.00159  C =      0.00158 [cm^-1]
  Rotational constants: A =   3221.07806  B =     47.63173  C =     47.41892 [MHz]
  Nuclear repulsion =  121.748430120300554

  Charge       = 0
  Multiplicity = 1
  Electrons    = 32
  Nalpha       = 16
  Nbeta        = 16

  ==> Algorithm <==

  SCF Algorithm Type is DF.
  DIIS enabled.
  MOM disabled.
  Fractional occupation disabled.
  Guess Type is SAD.
  Energy threshold   = 1.00e-10
  Density threshold  = 1.00e-10
  Integral threshold = 1.00e-12

  ==> Primary Basis <==

  Basis Set: AUG-CC-PVDZ
    Blend: AUG-CC-PVDZ
    Number of shells: 112
    Number of basis functions: 256
    Number of Cartesian functions: 272
    Spherical Harmonics?: true
    Max angular momentum: 2

   => Loading Basis Set <=

    Name: (AUG-CC-PVDZ AUX)
    Role: JKFIT
    Keyword: DF_BASIS_SCF
    atoms 1-2, 9-10  entry O          line   270 file /theoryfs2/ds/csargent/miniconda3/envs/cle/share/psi4/basis/aug-cc-pvdz-jkfit.gbs 
    atoms 3-6, 11-14 entry H          line    70 file /theoryfs2/ds/csargent/miniconda3/envs/cle/share/psi4/basis/aug-cc-pvdz-jkfit.gbs 
    atoms 7-8, 15-16 entry C          line   154 file /theoryfs2/ds/csargent/miniconda3/envs/cle/share/psi4/basis/aug-cc-pvdz-jkfit.gbs 

  ==> Integral Setup <==

  ==> DiskDFJK: Density-Fitted J/K Matrices <==

    J tasked:                  Yes
    K tasked:                  Yes
    wK tasked:                  No
    OpenMP threads:              6
    Integrals threads:           6
    Memory [MiB]:             5006
    Algorithm:                Core
    Integral Cache:           LOAD
    Schwarz Cutoff:          1E-12
    Fitting Condition:       1E-10

   => Auxiliary Basis Set <=

  Basis Set: (AUG-CC-PVDZ AUX)
    Blend: AUG-CC-PVDZ-JKFIT
    Number of shells: 320
    Number of basis functions: 944
    Number of Cartesian functions: 1088
    Spherical Harmonics?: true
    Max angular momentum: 3

  Minimum eigenvalue in the overlap matrix is 1.0274666777E-04.
  Reciprocal condition number of the overlap matrix is 9.6511606049E-06.
    Using symmetric orthogonalization.

  ==> Pre-Iterations <==

  SCF Guess: Superposition of Atomic Densities via on-the-fly atomic UHF (no occupation information).

   -------------------------
    Irrep   Nso     Nmo    
   -------------------------
     A        256     256 
   -------------------------
    Total     256     256
   -------------------------

  ==> Iterations <==

                           Total Energy        Delta E     RMS |[F,P]|

   @DF-RHF iter SAD:  -226.98992942394403   -2.26990e+02   0.00000e+00 
   @DF-RHF iter   1:  -227.68091167289461   -6.90982e-01   2.28211e-03 DIIS
   @DF-RHF iter   2:  -227.80091444724542   -1.20003e-01   1.32478e-03 DIIS
   @DF-RHF iter   3:  -227.84131986726135   -4.04054e-02   2.33581e-04 DIIS
   @DF-RHF iter   4:  -227.84355633076572   -2.23646e-03   1.03339e-04 DIIS
   @DF-RHF iter   5:  -227.84403723177255   -4.80901e-04   2.42136e-05 DIIS
   @DF-RHF iter   6:  -227.84407439976934   -3.71680e-05   1.17797e-05 DIIS
   @DF-RHF iter   7:  -227.84408418789545   -9.78813e-06   3.84272e-06 DIIS
   @DF-RHF iter   8:  -227.84408576948206   -1.58159e-06   1.01577e-06 DIIS
   @DF-RHF iter   9:  -227.84408588613221   -1.16650e-07   2.12954e-07 DIIS
   @DF-RHF iter  10:  -227.84408588995302   -3.82082e-09   5.61608e-08 DIIS
   @DF-RHF iter  11:  -227.84408589015663   -2.03613e-10   1.80147e-08 DIIS
   @DF-RHF iter  12:  -227.84408589017860   -2.19700e-11   4.26466e-09 DIIS
   @DF-RHF iter  13:  -227.84408589018003   -1.42109e-12   8.93569e-10 DIIS
   @DF-RHF iter  14:  -227.84408589018034   -3.12639e-13   2.86710e-10 DIIS
   @DF-RHF iter  15:  -227.84408589018034    0.00000e+00   1.08059e-10 DIIS
   @DF-RHF iter  16:  -227.84408589018028    5.68434e-14   2.86098e-11 DIIS
  Energy and wave function converged.


  ==> Post-Iterations <==

    Orbital Energies [Eh]
    ---------------------

    Doubly Occupied:                                                      

       1A    -20.629476     2A    -20.552804     3A    -11.396108  
       4A    -11.250979     5A     -1.475853     6A     -1.357486  
       7A     -1.032999     8A     -0.837930     9A     -0.703065  
      10A     -0.688465    11A     -0.657749    12A     -0.576538  
      13A     -0.569697    14A     -0.561403    15A     -0.475343  
      16A     -0.452434  

    Virtual:                                                              

      17A      0.024176    18A      0.032210    19A      0.045594  
      20A      0.046261    21A      0.054428    22A      0.055420  
      23A      0.056181    24A      0.064646    25A      0.084853  
      26A      0.098768    27A      0.103996    28A      0.111634  
      29A      0.116807    30A      0.117342    31A      0.117866  
      32A      0.139817    33A      0.140544    34A      0.140817  
      35A      0.146241    36A      0.152009    37A      0.156404  
      38A      0.164627    39A      0.171321    40A      0.175815  
      41A      0.196303    42A      0.204989    43A      0.209241  
      44A      0.213994    45A      0.225677    46A      0.233372  
      47A      0.234964    48A      0.243527    49A      0.259717  
      50A      0.264239    51A      0.270849    52A      0.276146  
      53A      0.284858    54A      0.290295    55A      0.295806  
      56A      0.319834    57A      0.322782    58A      0.331727  
      59A      0.335644    60A      0.347278    61A      0.368943  
      62A      0.370652    63A      0.378870    64A      0.394119  
      65A      0.398732    66A      0.401442    67A      0.409245  
      68A      0.426693    69A      0.430595    70A      0.437338  
      71A      0.438226    72A      0.442061    73A      0.459831  
      74A      0.475556    75A      0.489648    76A      0.492365  
      77A      0.496718    78A      0.515955    79A      0.524763  
      80A      0.537262    81A      0.541139    82A      0.543018  
      83A      0.553492    84A      0.559083    85A      0.569741  
      86A      0.583793    87A      0.586248    88A      0.602101  
      89A      0.615746    90A      0.618232    91A      0.635687  
      92A      0.636515    93A      0.640311    94A      0.649301  
      95A      0.666705    96A      0.674575    97A      0.684212  
      98A      0.689412    99A      0.697191   100A      0.700280  
     101A      0.703571   102A      0.727582   103A      0.733289  
     104A      0.742748   105A      0.753099   106A      0.759778  
     107A      0.786583   108A      0.798460   109A      0.815235  
     110A      0.819562   111A      0.847679   112A      0.853581  
     113A      0.876833   114A      0.887672   115A      0.895849  
     116A      0.912404   117A      0.947078   118A      0.949697  
     119A      0.954375   120A      0.957558   121A      0.975351  
     122A      0.983144   123A      1.037409   124A      1.041547  
     125A      1.044624   126A      1.088822   127A      1.101843  
     128A      1.105855   129A      1.118367   130A      1.157521  
     131A      1.162001   132A      1.172141   133A      1.176359  
     134A      1.190288   135A      1.236036   136A      1.260073  
     137A      1.269670   138A      1.272188   139A      1.319230  
     140A      1.328988   141A      1.358183   142A      1.383535  
     143A      1.390441   144A      1.395662   145A      1.412452  
     146A      1.434127   147A      1.457751   148A      1.462795  
     149A      1.467060   150A      1.467976   151A      1.468935  
     152A      1.536978   153A      1.546014   154A      1.568723  
     155A      1.635049   156A      1.649916   157A      1.683124  
     158A      1.715105   159A      1.716923   160A      1.755800  
     161A      1.772884   162A      1.799411   163A      1.848041  
     164A      1.865503   165A      1.882365   166A      1.883811  
     167A      1.936495   168A      1.966455   169A      1.979453  
     170A      2.026299   171A      2.037645   172A      2.070254  
     173A      2.122848   174A      2.172049   175A      2.193138  
     176A      2.244772   177A      2.250408   178A      2.253643  
     179A      2.264421   180A      2.272354   181A      2.273386  
     182A      2.302471   183A      2.312246   184A      2.336121  
     185A      2.338588   186A      2.361598   187A      2.376006  
     188A      2.379604   189A      2.430331   190A      2.438664  
     191A      2.466616   192A      2.505272   193A      2.536303  
     194A      2.585466   195A      2.623585   196A      2.652307  
     197A      2.664155   198A      2.697819   199A      2.753853  
     200A      2.783681   201A      2.785705   202A      2.823742  
     203A      2.833647   204A      2.886122   205A      2.915469  
     206A      2.974293   207A      3.001602   208A      3.016317  
     209A      3.042227   210A      3.178937   211A      3.181970  
     212A      3.278127   213A      3.310240   214A      3.346126  
     215A      3.356426   216A      3.431047   217A      3.486270  
     218A      3.662333   219A      3.666705   220A      3.690423  
     221A      3.736441   222A      3.739598   223A      3.759662  
     224A      3.790324   225A      3.805251   226A      3.900418  
     227A      4.025698   228A      4.050368   229A      4.142341  
     230A      4.153174   231A      4.309953   232A      4.504546  
     233A      4.616447   234A      4.724518   235A      4.925510  
     236A      4.969354   237A      4.977549   238A      5.001295  
     239A      5.016427   240A      5.033282   241A      5.052097  
     242A      5.221617   243A      5.243801   244A      5.614740  
     245A      5.660783   246A      5.790899   247A      5.868669  
     248A      6.052413   249A      6.228497   250A      6.520329  
     251A      6.789843   252A      7.092573   253A     18.345866  
     254A     18.940367   255A     33.525194   256A     33.563114  

    Final Occupation by Irrep:
              A 
    DOCC [    16 ]

  @DF-RHF Final Energy:  -227.84408589018028

   => Energetics <=

    Nuclear Repulsion Energy =            121.7484301203005543
    One-Electron Energy =                -552.7483712314241302
    Two-Electron Energy =                 203.1558552209432946
    Total Energy =                       -227.8440858901802812

Computation Completed


Properties will be evaluated at   0.000000,   0.000000,   0.000000 [a0]

Properties computed using the SCF density matrix

  Nuclear Dipole Moment: [e a0]
     X:   554.1536      Y:  -545.8076      Z:  -111.7653

  Electronic Dipole Moment: [e a0]
     X:  -554.9817      Y:   545.5247      Z:   111.6821

  Dipole Moment: [e a0]
     X:    -0.8281      Y:    -0.2829      Z:    -0.0832     Total:     0.8790

  Dipole Moment: [D]
     X:    -2.1048      Y:    -0.7191      Z:    -0.2116     Total:     2.2342


*** tstop() called on ds1 at Wed Sep  1 14:25:06 2021
Module time:
	user time   =      10.95 seconds =       0.18 minutes
	system time =       0.17 seconds =       0.00 minutes
	total time  =          2 seconds =       0.03 minutes
Total time:
	user time   =      37.22 seconds =       0.62 minutes
	system time =       0.78 seconds =       0.01 minutes
	total time  =          8 seconds =       0.13 minutes
  Constructing Basis Sets for SAPT...

   => Loading Basis Set <=

    Name: (AUG-CC-PVDZ AUX)
    Role: RIFIT
    Keyword: DF_BASIS_SAPT
    atoms 1-2, 9-10  entry O          line   204 file /theoryfs2/ds/csargent/miniconda3/envs/cle/share/psi4/basis/aug-cc-pvdz-ri.gbs 
    atoms 3-6, 11-14 entry H          line    30 file /theoryfs2/ds/csargent/miniconda3/envs/cle/share/psi4/basis/aug-cc-pvdz-ri.gbs 
    atoms 7-8, 15-16 entry C          line   112 file /theoryfs2/ds/csargent/miniconda3/envs/cle/share/psi4/basis/aug-cc-pvdz-ri.gbs 


  //>>>>>>>>>>>>>>>>>>>>>>>>>>>>>>>>>>>//
  //               SAPT0               //
  //<<<<<<<<<<<<<<<<<<<<<<<<<<<<<<<<<<<//


*** tstart() called on ds1
*** at Wed Sep  1 14:25:06 2021

        SAPT0  
    Ed Hohenstein
     6 June 2009

      Orbital Information
  --------------------------
    NSO        =       256
    NMO        =       256
    NRI        =       760
    NOCC A     =        16
    NOCC B     =        16
    FOCC A     =         4
    FOCC B     =         4
    NVIR A     =       240
    NVIR B     =       240

    Elst10,r            =     0.000014760810 [Eh]
    Exch10              =     0.000000000001 [Eh]
    Exch10 (S^2)        =     0.000000000001 [Eh]

    Iter     Energy [mEh]          dE [mEh]         Residual      Time [s]
       1      -0.00003730       0.000037299       0.054370287             0
       2      -0.00003726      -0.000000043       0.019924715             0
       3      -0.00004036       0.000003105       0.007446373             0
       4      -0.00004115       0.000000785       0.001690204             0
       5      -0.00004102      -0.000000128       0.000994834             0
       6      -0.00004097      -0.000000050       0.000290528             0
       7      -0.00004098       0.000000017       0.000078205             1
       8      -0.00004099       0.000000002       0.000014801             1
       9      -0.00004099      -0.000000001       0.000004462             1
      10      -0.00004099       0.000000000       0.000001846             1
      11      -0.00004099       0.000000000       0.000000624             1

    CHF Iterations converged


    Iter     Energy [mEh]          dE [mEh]         Residual      Time [s]
       1      -0.00002545       0.000025451       0.034841321             0
       2      -0.00002781       0.000002356       0.015454563             0
       3      -0.00002952       0.000001716       0.005410780             0
       4      -0.00002988       0.000000358       0.001270951             0
       5      -0.00002978      -0.000000105       0.000571705             0
       6      -0.00002976      -0.000000015       0.000224313             0
       7      -0.00002977       0.000000010       0.000081286             0
       8      -0.00002977       0.000000002       0.000021150             0
       9      -0.00002977      -0.000000001       0.000007916             1
      10      -0.00002977      -0.000000000       0.000002967             1
      11      -0.00002977       0.000000000       0.000000858             1

    CHF Iterations converged

    Ind20,r (A<-B)      =    -0.000000040985 [Eh]
    Ind20,r (B<-A)      =    -0.000000029773 [Eh]
    Ind20,r             =    -0.000000070759 [Eh]
    Exch-Ind20,r (A<-B) =     0.000000000001 [Eh]
    Exch-Ind20,r (B<-A) =     0.000000000001 [Eh]
    Exch-Ind20,r        =     0.000000000002 [Eh]
    Disp20              =    -0.000001238848 [Eh]
    Disp20 (SS)         =    -0.000000619424 [Eh]
    Disp20 (OS)         =    -0.000000619424 [Eh]
    Exch-Disp20         =     0.000000000000 [Eh]
    Exch-Disp20 (SS)    =     0.000000000000 [Eh]
    Exch-Disp20 (OS)    =     0.000000000000 [Eh]

    SAPT Results 
  --------------------------------------------------------------------------------------------------------
    Electrostatics                  0.01476081 [mEh]       0.00926255 [kcal/mol]       0.03875450 [kJ/mol]
      Elst10,r                      0.01476081 [mEh]       0.00926255 [kcal/mol]       0.03875450 [kJ/mol]

    Exchange                        0.00000000 [mEh]       0.00000000 [kcal/mol]       0.00000000 [kJ/mol]
      Exch10                        0.00000000 [mEh]       0.00000000 [kcal/mol]       0.00000000 [kJ/mol]
      Exch10(S^2)                   0.00000000 [mEh]       0.00000000 [kcal/mol]       0.00000000 [kJ/mol]

    Induction                      -0.00010216 [mEh]      -0.00006411 [kcal/mol]      -0.00026822 [kJ/mol]
      Ind20,r                      -0.00007076 [mEh]      -0.00004440 [kcal/mol]      -0.00018578 [kJ/mol]
      Exch-Ind20,r                  0.00000000 [mEh]       0.00000000 [kcal/mol]       0.00000000 [kJ/mol]
      delta HF,r (2)               -0.00003140 [mEh]      -0.00001971 [kcal/mol]      -0.00008245 [kJ/mol]

    Dispersion                     -0.00123885 [mEh]      -0.00077739 [kcal/mol]      -0.00325260 [kJ/mol]
      Disp20                       -0.00123885 [mEh]      -0.00077739 [kcal/mol]      -0.00325260 [kJ/mol]
      Exch-Disp20                   0.00000000 [mEh]       0.00000000 [kcal/mol]       0.00000000 [kJ/mol]
      Disp20 (SS)                  -0.00061942 [mEh]      -0.00038869 [kcal/mol]      -0.00162630 [kJ/mol]
      Disp20 (OS)                  -0.00061942 [mEh]      -0.00038869 [kcal/mol]      -0.00162630 [kJ/mol]
      Exch-Disp20 (SS)              0.00000000 [mEh]       0.00000000 [kcal/mol]       0.00000000 [kJ/mol]
      Exch-Disp20 (OS)              0.00000000 [mEh]       0.00000000 [kcal/mol]       0.00000000 [kJ/mol]

  Total HF                          0.01465865 [mEh]       0.00919844 [kcal/mol]       0.03848628 [kJ/mol]
  Total SAPT0                       0.01341980 [mEh]       0.00842105 [kcal/mol]       0.03523368 [kJ/mol]

  Special recipe for scaled SAPT0 (see Manual):
    Electrostatics sSAPT0           0.01476081 [mEh]       0.00926255 [kcal/mol]       0.03875450 [kJ/mol]
    Exchange sSAPT0                 0.00000000 [mEh]       0.00000000 [kcal/mol]       0.00000000 [kJ/mol]
    Induction sSAPT0               -0.00010216 [mEh]      -0.00006411 [kcal/mol]      -0.00026822 [kJ/mol]
    Dispersion sSAPT0              -0.00123885 [mEh]      -0.00077739 [kcal/mol]      -0.00325260 [kJ/mol]
  Total sSAPT0                      0.01341980 [mEh]       0.00842105 [kcal/mol]       0.03523368 [kJ/mol]
  --------------------------------------------------------------------------------------------------------

*** tstop() called on ds1 at Wed Sep  1 14:25:12 2021
Module time:
	user time   =      28.18 seconds =       0.47 minutes
	system time =       2.48 seconds =       0.04 minutes
	total time  =          6 seconds =       0.10 minutes
Total time:
	user time   =      65.87 seconds =       1.10 minutes
	system time =       3.28 seconds =       0.05 minutes
	total time  =         14 seconds =       0.23 minutes


Warning! sapt0 does not have an associated derived wavefunction.The returned wavefunction is the dimer SCF wavefunction.


    Psi4 stopped on: Wednesday, 01 September 2021 02:25PM
    Psi4 wall time for execution: 0:00:14.24

*** Psi4 exiting successfully. Buy a developer a beer!
