
    -----------------------------------------------------------------------
          Psi4: An Open-Source Ab Initio Electronic Structure Package
                               Psi4 1.4rc3 

                         Git: Rev {HEAD} 080dba6 


    D. G. A. Smith, L. A. Burns, A. C. Simmonett, R. M. Parrish,
    M. C. Schieber, R. Galvelis, P. Kraus, H. Kruse, R. Di Remigio,
    A. Alenaizan, A. M. James, S. Lehtola, J. P. Misiewicz, M. Scheurer,
    R. A. Shaw, J. B. Schriber, Y. Xie, Z. L. Glick, D. A. Sirianni,
    J. S. O'Brien, J. M. Waldrop, A. Kumar, E. G. Hohenstein,
    B. P. Pritchard, B. R. Brooks, H. F. Schaefer III, A. Yu. Sokolov,
    K. Patkowski, A. E. DePrince III, U. Bozkaya, R. A. King,
    F. A. Evangelista, J. M. Turney, T. D. Crawford, C. D. Sherrill,
    J. Chem. Phys. 152(18) 184108 (2020). https://doi.org/10.1063/5.0006002

                            Additional Code Authors
    E. T. Seidl, C. L. Janssen, E. F. Valeev, M. L. Leininger,
    J. F. Gonthier, R. M. Richard, H. R. McAlexander, M. Saitow, X. Wang,
    P. Verma, and M. H. Lechner

             Previous Authors, Complete List of Code Contributors,
                       and Citations for Specific Modules
    https://github.com/psi4/psi4/blob/master/codemeta.json
    https://github.com/psi4/psi4/graphs/contributors
    http://psicode.org/psi4manual/master/introduction.html#citing-psifour

    -----------------------------------------------------------------------


    Psi4 started on: Wednesday, 01 September 2021 02:27PM

    Process ID: 21793
    Host:       ds1
    PSIDATADIR: /theoryfs2/ds/csargent/miniconda3/envs/cle/share/psi4
    Memory:     500.0 MiB
    Threads:    6
    
  ==> Input File <==

--------------------------------------------------------------------------
# PSI4 file produced by CrystaLattE

# Generated from:               acetic_acid.xyz
# Psithon input for N-mer:      2mer-0+470
# Number of atoms per monomer:  [8, 8]
# Number of replicas:           2
# COM priority:                 1.846815952089e-05
# Minimum COM separations:      20.020 
# Separation priority:          2.415044372310e-05
# Minimum monomer separations:  18.307 
# Cutoff priority:              6.980718941945e-07
# Nuclear repulsion energy:     270.46542271779117

memory 7 GB

molecule Dimer_0_470 {
  O           -5.53102237       2.93940290       1.97762624 
  O           -2.40708886       0.90817734       0.04905909 
  H           -0.50304887       1.37579205       4.63880908 
  H            0.00000000       4.25104285       3.09072238 
  H           -2.38948215       4.01916779       5.40195041 
  H           -3.74771411       0.47147930      -1.21557512 
  C           -1.41859782       2.98500500       3.84405190 
  C           -3.32263781       2.28628814       1.91221413 
--
  O           -5.53102237     -27.97727240      23.78166423 
  O           -2.40708886     -30.00849797      21.85309707 
  H           -0.50304887     -29.54088325      26.44284706 
  H            0.00000000     -26.66563245      24.89476036 
  H           -2.38948215     -26.89750751      27.20598839 
  H           -3.74771411     -30.44519600      20.58846286 
  C           -1.41859782     -27.93167030      25.64808988 
  C           -3.32263781     -28.63038716      23.71625211 
units = au
no_com
no_reorient
}

set {
  e_convergence 10
  d_convergence 10
  scf_type df
  mp2_type df
  cc_type df
  freeze_core true
}

energy('sapt0/aug-cc-pvdz')

--------------------------------------------------------------------------

  Memory set to   6.519 GiB by Python driver.

Scratch directory: /scratch/csargent/psi4.17562.33784/

Scratch directory: /scratch/csargent/psi4.17562.33784/

  //>>>>>>>>>>>>>>>>>>>>>>>>>>>>>>>>>>>//
  //              Dimer HF             //
  //<<<<<<<<<<<<<<<<<<<<<<<<<<<<<<<<<<<//


*** tstart() called on ds1
*** at Wed Sep  1 14:27:31 2021

   => Loading Basis Set <=

    Name: AUG-CC-PVDZ
    Role: ORBITAL
    Keyword: BASIS
    atoms 1-2, 9-10  entry O          line   254 file /theoryfs2/ds/csargent/miniconda3/envs/cle/share/psi4/basis/aug-cc-pvdz.gbs 
    atoms 3-6, 11-14 entry H          line    40 file /theoryfs2/ds/csargent/miniconda3/envs/cle/share/psi4/basis/aug-cc-pvdz.gbs 
    atoms 7-8, 15-16 entry C          line   182 file /theoryfs2/ds/csargent/miniconda3/envs/cle/share/psi4/basis/aug-cc-pvdz.gbs 


         ---------------------------------------------------------
                                   SCF
               by Justin Turney, Rob Parrish, Andy Simmonett
                          and Daniel G. A. Smith
                              RHF Reference
                        6 Threads,   6675 MiB Core
         ---------------------------------------------------------

  ==> Geometry <==

    Molecular point group: c1
    Full point group: C1

    Geometry (in Bohr), charge = 0, multiplicity = 1:

       Center              X                  Y                   Z               Mass       
    ------------   -----------------  -----------------  -----------------  -----------------
         O           -5.531022370000     2.939402900000     1.977626240000    15.994914619570
         O           -2.407088860000     0.908177340000     0.049059090000    15.994914619570
         H           -0.503048870000     1.375792050000     4.638809080000     1.007825032230
         H            0.000000000000     4.251042850000     3.090722380000     1.007825032230
         H           -2.389482150000     4.019167790000     5.401950410000     1.007825032230
         H           -3.747714110000     0.471479300000    -1.215575120000     1.007825032230
         C           -1.418597820000     2.985005000000     3.844051900000    12.000000000000
         C           -3.322637810000     2.286288140000     1.912214130000    12.000000000000
         O           -5.531022370000   -27.977272400000    23.781664230000    15.994914619570
         O           -2.407088860000   -30.008497970000    21.853097070000    15.994914619570
         H           -0.503048870000   -29.540883250000    26.442847060000     1.007825032230
         H            0.000000000000   -26.665632450000    24.894760360000     1.007825032230
         H           -2.389482150000   -26.897507510000    27.205988390000     1.007825032230
         H           -3.747714110000   -30.445196000000    20.588462860000     1.007825032230
         C           -1.418597820000   -27.931670300000    25.648089880000    12.000000000000
         C           -3.322637810000   -28.630387160000    23.716252110000    12.000000000000

  Running in c1 symmetry.

  Rotational constants: A =      0.03394  B =      0.00072  C =      0.00071 [cm^-1]
  Rotational constants: A =   1017.63997  B =     21.48162  C =     21.21246 [MHz]
  Nuclear repulsion =  270.465422678173411

  Charge       = 0
  Multiplicity = 1
  Electrons    = 64
  Nalpha       = 32
  Nbeta        = 32

  ==> Algorithm <==

  SCF Algorithm Type is DF.
  DIIS enabled.
  MOM disabled.
  Fractional occupation disabled.
  Guess Type is SAD.
  Energy threshold   = 1.00e-10
  Density threshold  = 1.00e-10
  Integral threshold = 1.00e-12

  ==> Primary Basis <==

  Basis Set: AUG-CC-PVDZ
    Blend: AUG-CC-PVDZ
    Number of shells: 112
    Number of basis functions: 256
    Number of Cartesian functions: 272
    Spherical Harmonics?: true
    Max angular momentum: 2

   => Loading Basis Set <=

    Name: (AUG-CC-PVDZ AUX)
    Role: JKFIT
    Keyword: DF_BASIS_SCF
    atoms 1-2, 9-10  entry O          line   270 file /theoryfs2/ds/csargent/miniconda3/envs/cle/share/psi4/basis/aug-cc-pvdz-jkfit.gbs 
    atoms 3-6, 11-14 entry H          line    70 file /theoryfs2/ds/csargent/miniconda3/envs/cle/share/psi4/basis/aug-cc-pvdz-jkfit.gbs 
    atoms 7-8, 15-16 entry C          line   154 file /theoryfs2/ds/csargent/miniconda3/envs/cle/share/psi4/basis/aug-cc-pvdz-jkfit.gbs 

  ==> Integral Setup <==

  ==> DiskDFJK: Density-Fitted J/K Matrices <==

    J tasked:                  Yes
    K tasked:                  Yes
    wK tasked:                  No
    OpenMP threads:              6
    Integrals threads:           6
    Memory [MiB]:             5006
    Algorithm:                Core
    Integral Cache:           SAVE
    Schwarz Cutoff:          1E-12
    Fitting Condition:       1E-10

   => Auxiliary Basis Set <=

  Basis Set: (AUG-CC-PVDZ AUX)
    Blend: AUG-CC-PVDZ-JKFIT
    Number of shells: 320
    Number of basis functions: 944
    Number of Cartesian functions: 1088
    Spherical Harmonics?: true
    Max angular momentum: 3

  Minimum eigenvalue in the overlap matrix is 1.0277545600E-04.
  Reciprocal condition number of the overlap matrix is 9.6539157690E-06.
    Using symmetric orthogonalization.

  ==> Pre-Iterations <==

  SCF Guess: Superposition of Atomic Densities via on-the-fly atomic UHF (no occupation information).

   -------------------------
    Irrep   Nso     Nmo    
   -------------------------
     A        256     256 
   -------------------------
    Total     256     256
   -------------------------

  ==> Iterations <==

                           Total Energy        Delta E     RMS |[F,P]|

   @DF-RHF iter SAD:  -453.97985885316518   -4.53980e+02   0.00000e+00 
   @DF-RHF iter   1:  -455.36179233768189   -1.38193e+00   3.22745e-03 DIIS
   @DF-RHF iter   2:  -455.60179802263667   -2.40006e-01   1.87371e-03 DIIS
   @DF-RHF iter   3:  -455.68262519222344   -8.08272e-02   3.30415e-04 DIIS
   @DF-RHF iter   4:  -455.68709928885909   -4.47410e-03   1.46180e-04 DIIS
   @DF-RHF iter   5:  -455.68806152136727   -9.62233e-04   3.42519e-05 DIIS
   @DF-RHF iter   6:  -455.68813588757462   -7.43662e-05   1.66614e-05 DIIS
   @DF-RHF iter   7:  -455.68815547327858   -1.95857e-05   5.43597e-06 DIIS
   @DF-RHF iter   8:  -455.68815863760312   -3.16432e-06   1.43672e-06 DIIS
   @DF-RHF iter   9:  -455.68815887096758   -2.33364e-07   3.01139e-07 DIIS
   @DF-RHF iter  10:  -455.68815887860609   -7.63850e-09   7.94250e-08 DIIS
   @DF-RHF iter  11:  -455.68815887901326   -4.07169e-10   2.54766e-08 DIIS
   @DF-RHF iter  12:  -455.68815887905754   -4.42810e-11   6.03094e-09 DIIS
   @DF-RHF iter  13:  -455.68815887906032   -2.78533e-12   1.26516e-09 DIIS
   @DF-RHF iter  14:  -455.68815887906021    1.13687e-13   4.11263e-10 DIIS
   @DF-RHF iter  15:  -455.68815887906061   -3.97904e-13   1.58667e-10 DIIS
   @DF-RHF iter  16:  -455.68815887906084   -2.27374e-13   4.67628e-11 DIIS
  Energy and wave function converged.


  ==> Post-Iterations <==

    Orbital Energies [Eh]
    ---------------------

    Doubly Occupied:                                                      

       1A    -20.629613     2A    -20.629361     3A    -20.552928  
       4A    -20.552673     5A    -11.396235     6A    -11.395981  
       7A    -11.251122     8A    -11.250868     9A     -1.475986  
      10A     -1.475733    11A     -1.357612    12A     -1.357358  
      13A     -1.033139    14A     -1.032885    15A     -0.838068  
      16A     -0.837817    17A     -0.703191    18A     -0.702938  
      19A     -0.688601    20A     -0.688348    21A     -0.657886  
      22A     -0.657632    23A     -0.576671    24A     -0.576418  
      25A     -0.569841    26A     -0.569587    27A     -0.561544  
      28A     -0.561288    29A     -0.475466    30A     -0.475212  
      31A     -0.452558    32A     -0.452303  

    Virtual:                                                              

      33A      0.032054    34A      0.032300    35A      0.045481  
      36A      0.045723    37A      0.054895    38A      0.055158  
      39A      0.064531    40A      0.064786    41A      0.098637  
      42A      0.098886    43A      0.117183    44A      0.117451  
      45A      0.117726    46A      0.117971    47A      0.140416  
      48A      0.140664    49A      0.151810    50A      0.152056  
      51A      0.156215    52A      0.156481    53A      0.164428  
      54A      0.164692    55A      0.171192    56A      0.171446  
      57A      0.196165    58A      0.196414    59A      0.209099  
      60A      0.209344    61A      0.233232    62A      0.233483  
      63A      0.234834    64A      0.235084    65A      0.270716  
      66A      0.270970    67A      0.290190    68A      0.290443  
      69A      0.295651    70A      0.295903    71A      0.319704  
      72A      0.319951    73A      0.322665    74A      0.322931  
      75A      0.347133    76A      0.347387    77A      0.370533  
      78A      0.370784    79A      0.378720    80A      0.378973  
      81A      0.393988    82A      0.394237    83A      0.401290  
      84A      0.401549    85A      0.426536    86A      0.426785  
      87A      0.438081    88A      0.438337    89A      0.441850  
      90A      0.442104    91A      0.475422    92A      0.475672  
      93A      0.492208    94A      0.492465    95A      0.524617  
      96A      0.524873    97A      0.537139    98A      0.537392  
      99A      0.553341   100A      0.553592   101A      0.569602  
     102A      0.569856   103A      0.583649   104A      0.583904  
     105A      0.601961   106A      0.602211   107A      0.618094  
     108A      0.618345   109A      0.640170   110A      0.640422  
     111A      0.649157   112A      0.649412   113A      0.666561  
     114A      0.666813   115A      0.684075   116A      0.684330  
     117A      0.697053   118A      0.697310   119A      0.703429  
     120A      0.703681   121A      0.733149   122A      0.733405  
     123A      0.742612   124A      0.742865   125A      0.798318  
     126A      0.798573   127A      0.853446   128A      0.853698  
     129A      0.876707   130A      0.876961   131A      0.912273  
     132A      0.912528   133A      0.949558   134A      0.949816  
     135A      0.954238   136A      0.954491   137A      0.983009  
     138A      0.983261   139A      1.041411   140A      1.041666  
     141A      1.088676   142A      1.088935   143A      1.101697  
     144A      1.101949   145A      1.118232   146A      1.118485  
     147A      1.157387   148A      1.157640   149A      1.172005  
     150A      1.172256   151A      1.176222   152A      1.176476  
     153A      1.235890   154A      1.236141   155A      1.272062  
     156A      1.272316   157A      1.319108   158A      1.319364  
     159A      1.358057   160A      1.358310   161A      1.390317  
     162A      1.390570   163A      1.412314   164A      1.412570  
     165A      1.462672   166A      1.462924   167A      1.467847  
     168A      1.468098   169A      1.545875   170A      1.546130  
     171A      1.634911   172A      1.635165   173A      1.649780  
     174A      1.650034   175A      1.714965   176A      1.715220  
     177A      1.755664   178A      1.755919   179A      1.772743  
     180A      1.772996   181A      1.847912   182A      1.848168  
     183A      1.865361   184A      1.865615   185A      1.883664  
     186A      1.883918   187A      1.966314   188A      1.966566  
     189A      1.979325   190A      1.979579   191A      2.026162  
     192A      2.026415   193A      2.037506   194A      2.037760  
     195A      2.122715   196A      2.122969   197A      2.171908  
     198A      2.172161   199A      2.192999   200A      2.193253  
     201A      2.244631   202A      2.244886   203A      2.253504  
     204A      2.253758   205A      2.272224   206A      2.272478  
     207A      2.312109   208A      2.312362   209A      2.379463  
     210A      2.379716   211A      2.430194   212A      2.430446  
     213A      2.438522   214A      2.438775   215A      2.536165  
     216A      2.536418   217A      2.623451   218A      2.623705  
     219A      2.652165   220A      2.652420   221A      2.783544  
     222A      2.783798   223A      2.833509   224A      2.833762  
     225A      2.885979   226A      2.886233   227A      2.974150  
     228A      2.974403   229A      3.001462   230A      3.001714  
     231A      3.016178   232A      3.016432   233A      3.178800  
     234A      3.179053   235A      3.345995   236A      3.346251  
     237A      3.666569   238A      3.666821   239A      3.690288  
     240A      3.690539   241A      3.736310   242A      3.736563  
     243A      3.759540   244A      3.759795   245A      3.790198  
     246A      3.790452   247A      3.805129   248A      3.805384  
     249A      3.900288   250A      3.900540   251A      4.050242  
     252A      4.050495   253A      4.142217   254A      4.142471  
     255A      4.309817   256A      4.310068  

    Final Occupation by Irrep:
              A 
    DOCC [    32 ]

  @DF-RHF Final Energy:  -455.68815887906084

   => Energetics <=

    Nuclear Repulsion Energy =            270.4654226781734110
    One-Electron Energy =               -1159.4334365526171950
    Two-Electron Energy =                 433.2798549953830047
    Total Energy =                       -455.6881588790608362

Computation Completed


Properties will be evaluated at   0.000000,   0.000000,   0.000000 [a0]

Properties computed using the SCF density matrix

  Nuclear Dipole Moment: [e a0]
     X:  -197.1851      Y:  -844.2818      Z:   823.0632

  Electronic Dipole Moment: [e a0]
     X:   198.8402      Y:   843.7160      Z:  -823.2293

  Dipole Moment: [e a0]
     X:     1.6551      Y:    -0.5659      Z:    -0.1661     Total:     1.7571

  Dipole Moment: [D]
     X:     4.2069      Y:    -1.4383      Z:    -0.4222     Total:     4.4660


*** tstop() called on ds1 at Wed Sep  1 14:27:34 2021
Module time:
	user time   =      14.32 seconds =       0.24 minutes
	system time =       0.39 seconds =       0.01 minutes
	total time  =          3 seconds =       0.05 minutes
Total time:
	user time   =      14.32 seconds =       0.24 minutes
	system time =       0.39 seconds =       0.01 minutes
	total time  =          3 seconds =       0.05 minutes

  //>>>>>>>>>>>>>>>>>>>>>>>>>>>>>>>>>>>//
  //            Monomer A HF           //
  //<<<<<<<<<<<<<<<<<<<<<<<<<<<<<<<<<<<//


*** tstart() called on ds1
*** at Wed Sep  1 14:27:34 2021

   => Loading Basis Set <=

    Name: AUG-CC-PVDZ
    Role: ORBITAL
    Keyword: BASIS
    atoms 1-2, 9-10  entry O          line   254 file /theoryfs2/ds/csargent/miniconda3/envs/cle/share/psi4/basis/aug-cc-pvdz.gbs 
    atoms 3-6, 11-14 entry H          line    40 file /theoryfs2/ds/csargent/miniconda3/envs/cle/share/psi4/basis/aug-cc-pvdz.gbs 
    atoms 7-8, 15-16 entry C          line   182 file /theoryfs2/ds/csargent/miniconda3/envs/cle/share/psi4/basis/aug-cc-pvdz.gbs 


         ---------------------------------------------------------
                                   SCF
               by Justin Turney, Rob Parrish, Andy Simmonett
                          and Daniel G. A. Smith
                              RHF Reference
                        6 Threads,   6675 MiB Core
         ---------------------------------------------------------

  ==> Geometry <==

    Molecular point group: c1
    Full point group: C1

    Geometry (in Bohr), charge = 0, multiplicity = 1:

       Center              X                  Y                   Z               Mass       
    ------------   -----------------  -----------------  -----------------  -----------------
         O           -5.531022370000     2.939402900000     1.977626240000    15.994914619570
         O           -2.407088860000     0.908177340000     0.049059090000    15.994914619570
         H           -0.503048870000     1.375792050000     4.638809080000     1.007825032230
         H            0.000000000000     4.251042850000     3.090722380000     1.007825032230
         H           -2.389482150000     4.019167790000     5.401950410000     1.007825032230
         H           -3.747714110000     0.471479300000    -1.215575120000     1.007825032230
         C           -1.418597820000     2.985005000000     3.844051900000    12.000000000000
         C           -3.322637810000     2.286288140000     1.912214130000    12.000000000000
      Gh(O)          -5.531022370000   -27.977272400000    23.781664230000    15.994914619570
      Gh(O)          -2.407088860000   -30.008497970000    21.853097070000    15.994914619570
      Gh(H)          -0.503048870000   -29.540883250000    26.442847060000     1.007825032230
      Gh(H)           0.000000000000   -26.665632450000    24.894760360000     1.007825032230
      Gh(H)          -2.389482150000   -26.897507510000    27.205988390000     1.007825032230
      Gh(H)          -3.747714110000   -30.445196000000    20.588462860000     1.007825032230
      Gh(C)          -1.418597820000   -27.931670300000    25.648089880000    12.000000000000
      Gh(C)          -3.322637810000   -28.630387160000    23.716252110000    12.000000000000

  Running in c1 symmetry.

  Rotational constants: A =      0.03394  B =      0.00072  C =      0.00071 [cm^-1]
  Rotational constants: A =   1017.63997  B =     21.48162  C =     21.21246 [MHz]
  Nuclear repulsion =  121.748430210971620

  Charge       = 0
  Multiplicity = 1
  Electrons    = 32
  Nalpha       = 16
  Nbeta        = 16

  ==> Algorithm <==

  SCF Algorithm Type is DF.
  DIIS enabled.
  MOM disabled.
  Fractional occupation disabled.
  Guess Type is SAD.
  Energy threshold   = 1.00e-10
  Density threshold  = 1.00e-10
  Integral threshold = 1.00e-12

  ==> Primary Basis <==

  Basis Set: AUG-CC-PVDZ
    Blend: AUG-CC-PVDZ
    Number of shells: 112
    Number of basis functions: 256
    Number of Cartesian functions: 272
    Spherical Harmonics?: true
    Max angular momentum: 2

   => Loading Basis Set <=

    Name: (AUG-CC-PVDZ AUX)
    Role: JKFIT
    Keyword: DF_BASIS_SCF
    atoms 1-2, 9-10  entry O          line   270 file /theoryfs2/ds/csargent/miniconda3/envs/cle/share/psi4/basis/aug-cc-pvdz-jkfit.gbs 
    atoms 3-6, 11-14 entry H          line    70 file /theoryfs2/ds/csargent/miniconda3/envs/cle/share/psi4/basis/aug-cc-pvdz-jkfit.gbs 
    atoms 7-8, 15-16 entry C          line   154 file /theoryfs2/ds/csargent/miniconda3/envs/cle/share/psi4/basis/aug-cc-pvdz-jkfit.gbs 

  ==> Integral Setup <==

  ==> DiskDFJK: Density-Fitted J/K Matrices <==

    J tasked:                  Yes
    K tasked:                  Yes
    wK tasked:                  No
    OpenMP threads:              6
    Integrals threads:           6
    Memory [MiB]:             5006
    Algorithm:                Core
    Integral Cache:           LOAD
    Schwarz Cutoff:          1E-12
    Fitting Condition:       1E-10

   => Auxiliary Basis Set <=

  Basis Set: (AUG-CC-PVDZ AUX)
    Blend: AUG-CC-PVDZ-JKFIT
    Number of shells: 320
    Number of basis functions: 944
    Number of Cartesian functions: 1088
    Spherical Harmonics?: true
    Max angular momentum: 3

  Minimum eigenvalue in the overlap matrix is 1.0277545600E-04.
  Reciprocal condition number of the overlap matrix is 9.6539157690E-06.
    Using symmetric orthogonalization.

  ==> Pre-Iterations <==

  SCF Guess: Superposition of Atomic Densities via on-the-fly atomic UHF (no occupation information).

   -------------------------
    Irrep   Nso     Nmo    
   -------------------------
     A        256     256 
   -------------------------
    Total     256     256
   -------------------------

  ==> Iterations <==

                           Total Energy        Delta E     RMS |[F,P]|

   @DF-RHF iter SAD:  -226.98992942879258   -2.26990e+02   0.00000e+00 
   @DF-RHF iter   1:  -227.68091167912132   -6.90982e-01   2.28211e-03 DIIS
   @DF-RHF iter   2:  -227.80091445229473   -1.20003e-01   1.32478e-03 DIIS
   @DF-RHF iter   3:  -227.84131987164750   -4.04054e-02   2.33581e-04 DIIS
   @DF-RHF iter   4:  -227.84355633518149   -2.23646e-03   1.03339e-04 DIIS
   @DF-RHF iter   5:  -227.84403723618450   -4.80901e-04   2.42136e-05 DIIS
   @DF-RHF iter   6:  -227.84407440418229   -3.71680e-05   1.17797e-05 DIIS
   @DF-RHF iter   7:  -227.84408419230823   -9.78813e-06   3.84272e-06 DIIS
   @DF-RHF iter   8:  -227.84408577389507   -1.58159e-06   1.01577e-06 DIIS
   @DF-RHF iter   9:  -227.84408589054505   -1.16650e-07   2.12953e-07 DIIS
   @DF-RHF iter  10:  -227.84408589436555   -3.82050e-09   5.61608e-08 DIIS
   @DF-RHF iter  11:  -227.84408589456959   -2.04039e-10   1.80147e-08 DIIS
   @DF-RHF iter  12:  -227.84408589459130   -2.17142e-11   4.26466e-09 DIIS
   @DF-RHF iter  13:  -227.84408589459258   -1.27898e-12   8.93569e-10 DIIS
   @DF-RHF iter  14:  -227.84408589459289   -3.12639e-13   2.86710e-10 DIIS
   @DF-RHF iter  15:  -227.84408589459264    2.55795e-13   1.08058e-10 DIIS
   @DF-RHF iter  16:  -227.84408589459272   -8.52651e-14   2.86098e-11 DIIS
  Energy and wave function converged.


  ==> Post-Iterations <==

    Orbital Energies [Eh]
    ---------------------

    Doubly Occupied:                                                      

       1A    -20.629476     2A    -20.552804     3A    -11.396108  
       4A    -11.250979     5A     -1.475853     6A     -1.357486  
       7A     -1.032999     8A     -0.837930     9A     -0.703065  
      10A     -0.688465    11A     -0.657749    12A     -0.576538  
      13A     -0.569697    14A     -0.561403    15A     -0.475343  
      16A     -0.452434  

    Virtual:                                                              

      17A      0.024622    18A      0.032214    19A      0.045627  
      20A      0.046713    21A      0.055083    22A      0.055367  
      23A      0.056373    24A      0.064645    25A      0.085291  
      26A      0.098769    27A      0.104448    28A      0.112050  
      29A      0.117208    30A      0.117323    31A      0.117857  
      32A      0.140255    33A      0.140545    34A      0.141226  
      35A      0.146710    36A      0.151976    37A      0.156356  
      38A      0.164577    39A      0.171320    40A      0.176245  
      41A      0.196303    42A      0.205490    43A      0.209237  
      44A      0.214474    45A      0.226148    46A      0.233376  
      47A      0.234963    48A      0.243940    49A      0.260155  
      50A      0.264678    51A      0.270849    52A      0.276569  
      53A      0.285322    54A      0.290295    55A      0.295802  
      56A      0.319834    57A      0.322781    58A      0.332129  
      59A      0.336088    60A      0.347275    61A      0.369328  
      62A      0.370652    63A      0.378870    64A      0.394119  
      65A      0.399145    66A      0.401429    67A      0.409632  
      68A      0.426690    69A      0.431017    70A      0.437766  
      71A      0.438218    72A      0.442006    73A      0.460327  
      74A      0.475555    75A      0.490105    76A      0.492357  
      77A      0.497165    78A      0.516408    79A      0.524763  
      80A      0.537262    81A      0.541638    82A      0.543443  
      83A      0.553487    84A      0.559498    85A      0.569740  
      86A      0.583791    87A      0.586663    88A      0.602101  
      89A      0.616202    90A      0.618231    91A      0.636127  
      92A      0.636942    93A      0.640311    94A      0.649301  
      95A      0.666705    96A      0.675003    97A      0.684210  
      98A      0.689820    99A      0.697190   100A      0.700686  
     101A      0.703571   102A      0.727976   103A      0.733289  
     104A      0.742748   105A      0.753525   106A      0.760183  
     107A      0.787015   108A      0.798460   109A      0.815633  
     110A      0.819973   111A      0.848098   112A      0.853581  
     113A      0.876833   114A      0.888068   115A      0.896275  
     116A      0.912403   117A      0.947494   118A      0.949697  
     119A      0.954375   120A      0.957987   121A      0.975786  
     122A      0.983144   123A      1.037848   124A      1.041547  
     125A      1.045078   126A      1.088819   127A      1.101839  
     128A      1.106292   129A      1.118367   130A      1.157520  
     131A      1.162454   132A      1.172141   133A      1.176359  
     134A      1.190758   135A      1.236033   136A      1.260538  
     137A      1.270131   138A      1.272187   139A      1.319230  
     140A      1.329454   141A      1.358181   142A      1.383988  
     143A      1.390440   144A      1.396135   145A      1.412451  
     146A      1.434569   147A      1.458231   148A      1.462795  
     149A      1.467530   150A      1.467976   151A      1.469404  
     152A      1.537426   153A      1.546014   154A      1.569184  
     155A      1.635048   156A      1.649915   157A      1.683585  
     158A      1.715101   159A      1.717367   160A      1.755800  
     161A      1.772884   162A      1.799875   163A      1.848039  
     164A      1.865503   165A      1.882747   166A      1.883811  
     167A      1.936907   168A      1.966454   169A      1.979453  
     170A      2.026298   171A      2.037642   172A      2.070663  
     173A      2.122848   174A      2.172049   175A      2.193137  
     176A      2.244771   177A      2.250793   178A      2.253643  
     179A      2.264833   180A      2.272354   181A      2.273846  
     182A      2.302877   183A      2.312246   184A      2.336486  
     185A      2.339011   186A      2.362024   187A      2.376447  
     188A      2.379604   189A      2.430330   190A      2.438663  
     191A      2.467070   192A      2.505756   193A      2.536303  
     194A      2.585901   195A      2.623585   196A      2.652307  
     197A      2.664605   198A      2.698230   199A      2.754266  
     200A      2.783681   201A      2.786125   202A      2.824135  
     203A      2.833647   204A      2.886121   205A      2.915921  
     206A      2.974291   207A      3.001602   208A      3.016316  
     209A      3.042655   210A      3.178935   211A      3.182383  
     212A      3.278541   213A      3.310656   214A      3.346124  
     215A      3.356840   216A      3.431479   217A      3.486673  
     218A      3.662762   219A      3.666705   220A      3.690423  
     221A      3.736441   222A      3.740075   223A      3.759662  
     224A      3.790324   225A      3.805251   226A      3.900417  
     227A      4.026129   228A      4.050368   229A      4.142340  
     230A      4.153678   231A      4.309953   232A      4.504992  
     233A      4.616916   234A      4.724937   235A      4.925965  
     236A      4.969802   237A      4.978038   238A      5.001736  
     239A      5.016900   240A      5.033767   241A      5.052497  
     242A      5.222048   243A      5.244228   244A      5.615248  
     245A      5.661261   246A      5.791379   247A      5.869111  
     248A      6.052866   249A      6.228933   250A      6.520827  
     251A      6.790326   252A      7.093032   253A     18.346285  
     254A     18.940790   255A     33.525627   256A     33.563622  

    Final Occupation by Irrep:
              A 
    DOCC [    16 ]

  @DF-RHF Final Energy:  -227.84408589459272

   => Energetics <=

    Nuclear Repulsion Energy =            121.7484302109716197
    One-Electron Energy =                -552.7483714358845646
    Two-Electron Energy =                 203.1558553303202359
    Total Energy =                       -227.8440858945927232

Computation Completed


Properties will be evaluated at   0.000000,   0.000000,   0.000000 [a0]

Properties computed using the SCF density matrix

  Nuclear Dipole Moment: [e a0]
     X:   -98.5925      Y:    72.5259      Z:    62.6670

  Electronic Dipole Moment: [e a0]
     X:    99.4206      Y:   -72.8088      Z:   -62.7502

  Dipole Moment: [e a0]
     X:     0.8281      Y:    -0.2829      Z:    -0.0832     Total:     0.8790

  Dipole Moment: [D]
     X:     2.1048      Y:    -0.7191      Z:    -0.2116     Total:     2.2342


*** tstop() called on ds1 at Wed Sep  1 14:27:37 2021
Module time:
	user time   =      10.71 seconds =       0.18 minutes
	system time =       0.20 seconds =       0.00 minutes
	total time  =          3 seconds =       0.05 minutes
Total time:
	user time   =      25.09 seconds =       0.42 minutes
	system time =       0.60 seconds =       0.01 minutes
	total time  =          6 seconds =       0.10 minutes

  //>>>>>>>>>>>>>>>>>>>>>>>>>>>>>>>>>>>//
  //            Monomer B HF           //
  //<<<<<<<<<<<<<<<<<<<<<<<<<<<<<<<<<<<//


*** tstart() called on ds1
*** at Wed Sep  1 14:27:37 2021

   => Loading Basis Set <=

    Name: AUG-CC-PVDZ
    Role: ORBITAL
    Keyword: BASIS
    atoms 1-2, 9-10  entry O          line   254 file /theoryfs2/ds/csargent/miniconda3/envs/cle/share/psi4/basis/aug-cc-pvdz.gbs 
    atoms 3-6, 11-14 entry H          line    40 file /theoryfs2/ds/csargent/miniconda3/envs/cle/share/psi4/basis/aug-cc-pvdz.gbs 
    atoms 7-8, 15-16 entry C          line   182 file /theoryfs2/ds/csargent/miniconda3/envs/cle/share/psi4/basis/aug-cc-pvdz.gbs 


         ---------------------------------------------------------
                                   SCF
               by Justin Turney, Rob Parrish, Andy Simmonett
                          and Daniel G. A. Smith
                              RHF Reference
                        6 Threads,   6675 MiB Core
         ---------------------------------------------------------

  ==> Geometry <==

    Molecular point group: c1
    Full point group: C1

    Geometry (in Bohr), charge = 0, multiplicity = 1:

       Center              X                  Y                   Z               Mass       
    ------------   -----------------  -----------------  -----------------  -----------------
      Gh(O)          -5.531022370000     2.939402900000     1.977626240000    15.994914619570
      Gh(O)          -2.407088860000     0.908177340000     0.049059090000    15.994914619570
      Gh(H)          -0.503048870000     1.375792050000     4.638809080000     1.007825032230
      Gh(H)           0.000000000000     4.251042850000     3.090722380000     1.007825032230
      Gh(H)          -2.389482150000     4.019167790000     5.401950410000     1.007825032230
      Gh(H)          -3.747714110000     0.471479300000    -1.215575120000     1.007825032230
      Gh(C)          -1.418597820000     2.985005000000     3.844051900000    12.000000000000
      Gh(C)          -3.322637810000     2.286288140000     1.912214130000    12.000000000000
         O           -5.531022370000   -27.977272400000    23.781664230000    15.994914619570
         O           -2.407088860000   -30.008497970000    21.853097070000    15.994914619570
         H           -0.503048870000   -29.540883250000    26.442847060000     1.007825032230
         H            0.000000000000   -26.665632450000    24.894760360000     1.007825032230
         H           -2.389482150000   -26.897507510000    27.205988390000     1.007825032230
         H           -3.747714110000   -30.445196000000    20.588462860000     1.007825032230
         C           -1.418597820000   -27.931670300000    25.648089880000    12.000000000000
         C           -3.322637810000   -28.630387160000    23.716252110000    12.000000000000

  Running in c1 symmetry.

  Rotational constants: A =      0.03394  B =      0.00072  C =      0.00071 [cm^-1]
  Rotational constants: A =   1017.63997  B =     21.48162  C =     21.21246 [MHz]
  Nuclear repulsion =  121.748430132496694

  Charge       = 0
  Multiplicity = 1
  Electrons    = 32
  Nalpha       = 16
  Nbeta        = 16

  ==> Algorithm <==

  SCF Algorithm Type is DF.
  DIIS enabled.
  MOM disabled.
  Fractional occupation disabled.
  Guess Type is SAD.
  Energy threshold   = 1.00e-10
  Density threshold  = 1.00e-10
  Integral threshold = 1.00e-12

  ==> Primary Basis <==

  Basis Set: AUG-CC-PVDZ
    Blend: AUG-CC-PVDZ
    Number of shells: 112
    Number of basis functions: 256
    Number of Cartesian functions: 272
    Spherical Harmonics?: true
    Max angular momentum: 2

   => Loading Basis Set <=

    Name: (AUG-CC-PVDZ AUX)
    Role: JKFIT
    Keyword: DF_BASIS_SCF
    atoms 1-2, 9-10  entry O          line   270 file /theoryfs2/ds/csargent/miniconda3/envs/cle/share/psi4/basis/aug-cc-pvdz-jkfit.gbs 
    atoms 3-6, 11-14 entry H          line    70 file /theoryfs2/ds/csargent/miniconda3/envs/cle/share/psi4/basis/aug-cc-pvdz-jkfit.gbs 
    atoms 7-8, 15-16 entry C          line   154 file /theoryfs2/ds/csargent/miniconda3/envs/cle/share/psi4/basis/aug-cc-pvdz-jkfit.gbs 

  ==> Integral Setup <==

  ==> DiskDFJK: Density-Fitted J/K Matrices <==

    J tasked:                  Yes
    K tasked:                  Yes
    wK tasked:                  No
    OpenMP threads:              6
    Integrals threads:           6
    Memory [MiB]:             5006
    Algorithm:                Core
    Integral Cache:           LOAD
    Schwarz Cutoff:          1E-12
    Fitting Condition:       1E-10

   => Auxiliary Basis Set <=

  Basis Set: (AUG-CC-PVDZ AUX)
    Blend: AUG-CC-PVDZ-JKFIT
    Number of shells: 320
    Number of basis functions: 944
    Number of Cartesian functions: 1088
    Spherical Harmonics?: true
    Max angular momentum: 3

  Minimum eigenvalue in the overlap matrix is 1.0277545600E-04.
  Reciprocal condition number of the overlap matrix is 9.6539157690E-06.
    Using symmetric orthogonalization.

  ==> Pre-Iterations <==

  SCF Guess: Superposition of Atomic Densities via on-the-fly atomic UHF (no occupation information).

   -------------------------
    Irrep   Nso     Nmo    
   -------------------------
     A        256     256 
   -------------------------
    Total     256     256
   -------------------------

  ==> Iterations <==

                           Total Energy        Delta E     RMS |[F,P]|

   @DF-RHF iter SAD:  -226.98992942338970   -2.26990e+02   0.00000e+00 
   @DF-RHF iter   1:  -227.68091168014590   -6.90982e-01   2.28211e-03 DIIS
   @DF-RHF iter   2:  -227.80091445314201   -1.20003e-01   1.32478e-03 DIIS
   @DF-RHF iter   3:  -227.84131987248747   -4.04054e-02   2.33581e-04 DIIS
   @DF-RHF iter   4:  -227.84355633602345   -2.23646e-03   1.03339e-04 DIIS
   @DF-RHF iter   5:  -227.84403723702593   -4.80901e-04   2.42136e-05 DIIS
   @DF-RHF iter   6:  -227.84407440502355   -3.71680e-05   1.17797e-05 DIIS
   @DF-RHF iter   7:  -227.84408419314965   -9.78813e-06   3.84272e-06 DIIS
   @DF-RHF iter   8:  -227.84408577473639   -1.58159e-06   1.01577e-06 DIIS
   @DF-RHF iter   9:  -227.84408589138661   -1.16650e-07   2.12953e-07 DIIS
   @DF-RHF iter  10:  -227.84408589520740   -3.82079e-09   5.61608e-08 DIIS
   @DF-RHF iter  11:  -227.84408589541073   -2.03329e-10   1.80147e-08 DIIS
   @DF-RHF iter  12:  -227.84408589543301   -2.22826e-11   4.26466e-09 DIIS
   @DF-RHF iter  13:  -227.84408589543420   -1.19371e-12   8.93569e-10 DIIS
   @DF-RHF iter  14:  -227.84408589543449   -2.84217e-13   2.86710e-10 DIIS
   @DF-RHF iter  15:  -227.84408589543460   -1.13687e-13   1.08058e-10 DIIS
   @DF-RHF iter  16:  -227.84408589543438    2.27374e-13   2.86097e-11 DIIS
  Energy and wave function converged.


  ==> Post-Iterations <==

    Orbital Energies [Eh]
    ---------------------

    Doubly Occupied:                                                      

       1A    -20.629476     2A    -20.552804     3A    -11.396108  
       4A    -11.250979     5A     -1.475853     6A     -1.357486  
       7A     -1.032999     8A     -0.837930     9A     -0.703065  
      10A     -0.688465    11A     -0.657749    12A     -0.576538  
      13A     -0.569697    14A     -0.561403    15A     -0.475343  
      16A     -0.452434  

    Virtual:                                                              

      17A      0.024874    18A      0.032214    19A      0.045627  
      20A      0.046957    21A      0.055084    22A      0.055622  
      23A      0.056632    24A      0.064645    25A      0.085537  
      26A      0.098769    27A      0.104694    28A      0.112316  
      29A      0.117323    30A      0.117459    31A      0.117857  
      32A      0.140508    33A      0.140545    34A      0.141476  
      35A      0.146975    36A      0.151976    37A      0.156356  
      38A      0.164577    39A      0.171320    40A      0.176488  
      41A      0.196303    42A      0.205743    43A      0.209237  
      44A      0.214718    45A      0.226401    46A      0.233376  
      47A      0.234963    48A      0.244202    49A      0.260419  
      50A      0.264935    51A      0.270849    52A      0.276828  
      53A      0.285569    54A      0.290295    55A      0.295802  
      56A      0.319834    57A      0.322781    58A      0.332379  
      59A      0.336341    60A      0.347275    61A      0.369581  
      62A      0.370652    63A      0.378870    64A      0.394119  
      65A      0.399402    66A      0.401429    67A      0.409886  
      68A      0.426690    69A      0.431266    70A      0.438023  
      71A      0.438218    72A      0.442006    73A      0.460572  
      74A      0.475555    75A      0.490362    76A      0.492357  
      77A      0.497416    78A      0.516657    79A      0.524763  
      80A      0.537262    81A      0.541885    82A      0.543697  
      83A      0.553487    84A      0.559753    85A      0.569740  
      86A      0.583791    87A      0.586918    88A      0.602101  
      89A      0.616453    90A      0.618231    91A      0.636378  
      92A      0.637199    93A      0.640311    94A      0.649301  
      95A      0.666705    96A      0.675262    97A      0.684210  
      98A      0.690075    99A      0.697190   100A      0.700942  
     101A      0.703571   102A      0.728230   103A      0.733289  
     104A      0.742748   105A      0.753778   106A      0.760438  
     107A      0.787270   108A      0.798460   109A      0.815890  
     110A      0.820228   111A      0.848350   112A      0.853581  
     113A      0.876833   114A      0.888327   115A      0.896526  
     116A      0.912403   117A      0.947747   118A      0.949697  
     119A      0.954375   120A      0.958243   121A      0.976040  
     122A      0.983144   123A      1.038102   124A      1.041547  
     125A      1.045335   126A      1.088819   127A      1.101839  
     128A      1.106545   129A      1.118367   130A      1.157520  
     131A      1.162709   132A      1.172141   133A      1.176359  
     134A      1.191011   135A      1.236033   136A      1.260791  
     137A      1.270385   138A      1.272187   139A      1.319230  
     140A      1.329707   141A      1.358181   142A      1.384244  
     143A      1.390440   144A      1.396388   145A      1.412451  
     146A      1.434823   147A      1.458486   148A      1.462795  
     149A      1.467784   150A      1.467976   151A      1.469657  
     152A      1.537681   153A      1.546014   154A      1.569439  
     155A      1.635048   156A      1.649915   157A      1.683838  
     158A      1.715101   159A      1.717622   160A      1.755800  
     161A      1.772884   162A      1.800127   163A      1.848039  
     164A      1.865503   165A      1.883002   166A      1.883811  
     167A      1.937163   168A      1.966454   169A      1.979453  
     170A      2.026298   171A      2.037642   172A      2.070919  
     173A      2.122848   174A      2.172049   175A      2.193137  
     176A      2.244771   177A      2.251052   178A      2.253643  
     179A      2.265086   180A      2.272354   181A      2.274098  
     182A      2.303132   183A      2.312246   184A      2.336744  
     185A      2.339262   186A      2.362277   187A      2.376702  
     188A      2.379604   189A      2.430330   190A      2.438663  
     191A      2.467323   192A      2.506007   193A      2.536303  
     194A      2.586156   195A      2.623585   196A      2.652307  
     197A      2.664861   198A      2.698483   199A      2.754519  
     200A      2.783681   201A      2.786381   202A      2.824391  
     203A      2.833647   204A      2.886121   205A      2.916172  
     206A      2.974291   207A      3.001602   208A      3.016316  
     209A      3.042909   210A      3.178935   211A      3.182639  
     212A      3.278796   213A      3.310912   214A      3.346124  
     215A      3.357095   216A      3.431736   217A      3.486928  
     218A      3.663018   219A      3.666705   220A      3.690423  
     221A      3.736441   222A      3.740328   223A      3.759662  
     224A      3.790324   225A      3.805251   226A      3.900417  
     227A      4.026385   228A      4.050368   229A      4.142340  
     230A      4.153928   231A      4.309953   232A      4.505247  
     233A      4.617169   234A      4.725192   235A      4.926220  
     236A      4.970057   237A      4.978290   238A      5.001992  
     239A      5.017153   240A      5.034019   241A      5.052753  
     242A      5.222303   243A      5.244481   244A      5.615498  
     245A      5.661514   246A      5.791633   247A      5.869367  
     248A      6.053122   249A      6.229190   250A      6.521078  
     251A      6.790578   252A      7.093287   253A     18.346541  
     254A     18.941046   255A     33.525883   256A     33.563872  

    Final Occupation by Irrep:
              A 
    DOCC [    16 ]

  @DF-RHF Final Energy:  -227.84408589543438

   => Energetics <=

    Nuclear Repulsion Energy =            121.7484301324966935
    One-Electron Energy =                -552.7483712800083140
    Two-Electron Energy =                 203.1558552520772309
    Total Energy =                       -227.8440858954343753

Computation Completed


Properties will be evaluated at   0.000000,   0.000000,   0.000000 [a0]

Properties computed using the SCF density matrix

  Nuclear Dipole Moment: [e a0]
     X:   -98.5925      Y:  -916.8077      Z:   760.3962

  Electronic Dipole Moment: [e a0]
     X:    99.4206      Y:   916.5248      Z:  -760.4794

  Dipole Moment: [e a0]
     X:     0.8281      Y:    -0.2829      Z:    -0.0832     Total:     0.8790

  Dipole Moment: [D]
     X:     2.1048      Y:    -0.7191      Z:    -0.2116     Total:     2.2342


*** tstop() called on ds1 at Wed Sep  1 14:27:39 2021
Module time:
	user time   =      10.54 seconds =       0.18 minutes
	system time =       0.17 seconds =       0.00 minutes
	total time  =          2 seconds =       0.03 minutes
Total time:
	user time   =      35.80 seconds =       0.60 minutes
	system time =       0.78 seconds =       0.01 minutes
	total time  =          8 seconds =       0.13 minutes
  Constructing Basis Sets for SAPT...

   => Loading Basis Set <=

    Name: (AUG-CC-PVDZ AUX)
    Role: RIFIT
    Keyword: DF_BASIS_SAPT
    atoms 1-2, 9-10  entry O          line   204 file /theoryfs2/ds/csargent/miniconda3/envs/cle/share/psi4/basis/aug-cc-pvdz-ri.gbs 
    atoms 3-6, 11-14 entry H          line    30 file /theoryfs2/ds/csargent/miniconda3/envs/cle/share/psi4/basis/aug-cc-pvdz-ri.gbs 
    atoms 7-8, 15-16 entry C          line   112 file /theoryfs2/ds/csargent/miniconda3/envs/cle/share/psi4/basis/aug-cc-pvdz-ri.gbs 


  //>>>>>>>>>>>>>>>>>>>>>>>>>>>>>>>>>>>//
  //               SAPT0               //
  //<<<<<<<<<<<<<<<<<<<<<<<<<<<<<<<<<<<//


*** tstart() called on ds1
*** at Wed Sep  1 14:27:39 2021

        SAPT0  
    Ed Hohenstein
     6 June 2009

      Orbital Information
  --------------------------
    NSO        =       256
    NMO        =       256
    NRI        =       760
    NOCC A     =        16
    NOCC B     =        16
    FOCC A     =         4
    FOCC B     =         4
    NVIR A     =       240
    NVIR B     =       240

    Elst10,r            =     0.000012939228 [Eh]
    Exch10              =    -0.000000000000 [Eh]
    Exch10 (S^2)        =    -0.000000000000 [Eh]

    Iter     Energy [mEh]          dE [mEh]         Residual      Time [s]
       1      -0.00000475       0.000004751       0.022004871             0
       2      -0.00000465      -0.000000097       0.007048194             0
       3      -0.00000511       0.000000454       0.002756580             0
       4      -0.00000520       0.000000095       0.000819186             0
       5      -0.00000518      -0.000000025       0.000427139             0
       6      -0.00000517      -0.000000007       0.000113030             0
       7      -0.00000517       0.000000002       0.000031543             0
       8      -0.00000517       0.000000000       0.000007539             0
       9      -0.00000517      -0.000000000       0.000001920             1
      10      -0.00000517      -0.000000000       0.000000507             1

    CHF Iterations converged


    Iter     Energy [mEh]          dE [mEh]         Residual      Time [s]
       1      -0.00000394       0.000003937       0.020843558             0
       2      -0.00000385      -0.000000084       0.006661254             0
       3      -0.00000427       0.000000413       0.002624707             0
       4      -0.00000435       0.000000083       0.000762268             0
       5      -0.00000432      -0.000000029       0.000290960             0
       6      -0.00000432      -0.000000001       0.000100152             0
       7      -0.00000432       0.000000002       0.000025450             0
       8      -0.00000432       0.000000000       0.000005478             0
       9      -0.00000432      -0.000000000       0.000001980             0
      10      -0.00000432      -0.000000000       0.000000747             0

    CHF Iterations converged

    Ind20,r (A<-B)      =    -0.000000005174 [Eh]
    Ind20,r (B<-A)      =    -0.000000004321 [Eh]
    Ind20,r             =    -0.000000009495 [Eh]
    Exch-Ind20,r (A<-B) =     0.000000000000 [Eh]
    Exch-Ind20,r (B<-A) =     0.000000000000 [Eh]
    Exch-Ind20,r        =     0.000000000000 [Eh]
    Disp20              =    -0.000000170633 [Eh]
    Disp20 (SS)         =    -0.000000085316 [Eh]
    Disp20 (OS)         =    -0.000000085316 [Eh]
    Exch-Disp20         =     0.000000000000 [Eh]
    Exch-Disp20 (SS)    =     0.000000000000 [Eh]
    Exch-Disp20 (OS)    =     0.000000000000 [Eh]

    SAPT Results 
  --------------------------------------------------------------------------------------------------------
    Electrostatics                  0.01293923 [mEh]       0.00811949 [kcal/mol]       0.03397194 [kJ/mol]
      Elst10,r                      0.01293923 [mEh]       0.00811949 [kcal/mol]       0.03397194 [kJ/mol]

    Exchange                       -0.00000000 [mEh]      -0.00000000 [kcal/mol]      -0.00000000 [kJ/mol]
      Exch10                       -0.00000000 [mEh]      -0.00000000 [kcal/mol]      -0.00000000 [kJ/mol]
      Exch10(S^2)                  -0.00000000 [mEh]      -0.00000000 [kcal/mol]      -0.00000000 [kJ/mol]

    Induction                      -0.00002826 [mEh]      -0.00001773 [kcal/mol]      -0.00007420 [kJ/mol]
      Ind20,r                      -0.00000949 [mEh]      -0.00000596 [kcal/mol]      -0.00002493 [kJ/mol]
      Exch-Ind20,r                  0.00000000 [mEh]       0.00000000 [kcal/mol]       0.00000000 [kJ/mol]
      delta HF,r (2)               -0.00001877 [mEh]      -0.00001178 [kcal/mol]      -0.00004927 [kJ/mol]

    Dispersion                     -0.00017063 [mEh]      -0.00010707 [kcal/mol]      -0.00044800 [kJ/mol]
      Disp20                       -0.00017063 [mEh]      -0.00010707 [kcal/mol]      -0.00044800 [kJ/mol]
      Exch-Disp20                   0.00000000 [mEh]       0.00000000 [kcal/mol]       0.00000000 [kJ/mol]
      Disp20 (SS)                  -0.00008532 [mEh]      -0.00005354 [kcal/mol]      -0.00022400 [kJ/mol]
      Disp20 (OS)                  -0.00008532 [mEh]      -0.00005354 [kcal/mol]      -0.00022400 [kJ/mol]
      Exch-Disp20 (SS)              0.00000000 [mEh]       0.00000000 [kcal/mol]       0.00000000 [kJ/mol]
      Exch-Disp20 (OS)              0.00000000 [mEh]       0.00000000 [kcal/mol]       0.00000000 [kJ/mol]

  Total HF                          0.01291097 [mEh]       0.00810175 [kcal/mol]       0.03389774 [kJ/mol]
  Total SAPT0                       0.01274033 [mEh]       0.00799468 [kcal/mol]       0.03344974 [kJ/mol]

  Special recipe for scaled SAPT0 (see Manual):
    Electrostatics sSAPT0           0.01293923 [mEh]       0.00811949 [kcal/mol]       0.03397194 [kJ/mol]
    Exchange sSAPT0                -0.00000000 [mEh]      -0.00000000 [kcal/mol]      -0.00000000 [kJ/mol]
    Induction sSAPT0               -0.00002826 [mEh]      -0.00001773 [kcal/mol]      -0.00007420 [kJ/mol]
    Dispersion sSAPT0              -0.00017063 [mEh]      -0.00010707 [kcal/mol]      -0.00044800 [kJ/mol]
  Total sSAPT0                      0.01274033 [mEh]       0.00799468 [kcal/mol]       0.03344974 [kJ/mol]
  --------------------------------------------------------------------------------------------------------

*** tstop() called on ds1 at Wed Sep  1 14:27:45 2021
Module time:
	user time   =      27.13 seconds =       0.45 minutes
	system time =       2.26 seconds =       0.04 minutes
	total time  =          6 seconds =       0.10 minutes
Total time:
	user time   =      63.71 seconds =       1.06 minutes
	system time =       3.07 seconds =       0.05 minutes
	total time  =         14 seconds =       0.23 minutes


Warning! sapt0 does not have an associated derived wavefunction.The returned wavefunction is the dimer SCF wavefunction.


    Psi4 stopped on: Wednesday, 01 September 2021 02:27PM
    Psi4 wall time for execution: 0:00:13.92

*** Psi4 exiting successfully. Buy a developer a beer!
