
    -----------------------------------------------------------------------
          Psi4: An Open-Source Ab Initio Electronic Structure Package
                               Psi4 1.4rc3 

                         Git: Rev {HEAD} 080dba6 


    D. G. A. Smith, L. A. Burns, A. C. Simmonett, R. M. Parrish,
    M. C. Schieber, R. Galvelis, P. Kraus, H. Kruse, R. Di Remigio,
    A. Alenaizan, A. M. James, S. Lehtola, J. P. Misiewicz, M. Scheurer,
    R. A. Shaw, J. B. Schriber, Y. Xie, Z. L. Glick, D. A. Sirianni,
    J. S. O'Brien, J. M. Waldrop, A. Kumar, E. G. Hohenstein,
    B. P. Pritchard, B. R. Brooks, H. F. Schaefer III, A. Yu. Sokolov,
    K. Patkowski, A. E. DePrince III, U. Bozkaya, R. A. King,
    F. A. Evangelista, J. M. Turney, T. D. Crawford, C. D. Sherrill,
    J. Chem. Phys. 152(18) 184108 (2020). https://doi.org/10.1063/5.0006002

                            Additional Code Authors
    E. T. Seidl, C. L. Janssen, E. F. Valeev, M. L. Leininger,
    J. F. Gonthier, R. M. Richard, H. R. McAlexander, M. Saitow, X. Wang,
    P. Verma, and M. H. Lechner

             Previous Authors, Complete List of Code Contributors,
                       and Citations for Specific Modules
    https://github.com/psi4/psi4/blob/master/codemeta.json
    https://github.com/psi4/psi4/graphs/contributors
    http://psicode.org/psi4manual/master/introduction.html#citing-psifour

    -----------------------------------------------------------------------


    Psi4 started on: Monday, 04 October 2021 02:51PM

    Process ID: 11408
    Host:       ds1
    PSIDATADIR: /theoryfs2/ds/csargent/miniconda3/envs/cle/share/psi4
    Memory:     500.0 MiB
    Threads:    6
    
  ==> Input File <==

--------------------------------------------------------------------------
# PSI4 file produced by CrystaLattE

# Generated from:               pyrazole.xyz
# Psithon input for N-mer:      2mer-0+472
# Number of atoms per monomer:  [9, 9]
# Number of replicas:           1
# COM priority:                 2.013879006688e-05
# Minimum COM separations:      19.450 
# Separation priority:          3.498424490964e-05
# Minimum monomer separations:  16.180 
# Cutoff priority:              1.144186114187e-06
# Nuclear repulsion energy:     368.4912174808764

memory 7 GB

molecule Dimer_0_472 {
  N            6.27981210      -4.25303372       0.19313865 
  N            6.06870777      -2.28125697       1.80544317 
  H            3.66871156      -5.64628941      -1.96684001 
  H            0.69034521      -2.37545694      -0.42864236 
  H            3.35917442       0.17650601       3.09265017 
  H            7.35266782      -1.99461311       2.90680702 
  C            3.77952586      -1.21508453       1.76858172 
  C            2.38242998      -2.55505538       0.04607681 
  C            4.01771468      -4.38410490      -0.88761863 
--
  N           33.75185229       2.40090997      20.78653078 
  N           33.87071455       4.43881700      19.24935707 
  H           36.42501503       0.00000000      21.50456114 
  H           39.31965158       2.44253874      18.74942363 
  H           36.38322751       6.15558776      16.84478732 
  H           32.40830634       5.24879406      18.86359174 
  C           36.15355095       4.76899267      18.22030822 
  C           37.63654339       2.83932046      19.11023069 
  C           36.07523806       1.45415264      20.70192863 
units = au
no_com
no_reorient
}

set {
  e_convergence 10
  d_convergence 10
  scf_type df
  mp2_type df
  cc_type df
  freeze_core true
}

energy('sapt0/aug-cc-pvdz')

--------------------------------------------------------------------------

  Memory set to   6.519 GiB by Python driver.

Scratch directory: /scratch/csargent/psi4.7158.66302/

Scratch directory: /scratch/csargent/psi4.7158.66302/

  //>>>>>>>>>>>>>>>>>>>>>>>>>>>>>>>>>>>//
  //              Dimer HF             //
  //<<<<<<<<<<<<<<<<<<<<<<<<<<<<<<<<<<<//


*** tstart() called on ds1
*** at Mon Oct  4 14:51:11 2021

   => Loading Basis Set <=

    Name: AUG-CC-PVDZ
    Role: ORBITAL
    Keyword: BASIS
    atoms 1-2, 10-11 entry N          line   218 file /theoryfs2/ds/csargent/miniconda3/envs/cle/share/psi4/basis/aug-cc-pvdz.gbs 
    atoms 3-6, 12-15 entry H          line    40 file /theoryfs2/ds/csargent/miniconda3/envs/cle/share/psi4/basis/aug-cc-pvdz.gbs 
    atoms 7-9, 16-18 entry C          line   182 file /theoryfs2/ds/csargent/miniconda3/envs/cle/share/psi4/basis/aug-cc-pvdz.gbs 


         ---------------------------------------------------------
                                   SCF
               by Justin Turney, Rob Parrish, Andy Simmonett
                          and Daniel G. A. Smith
                              RHF Reference
                        6 Threads,   6675 MiB Core
         ---------------------------------------------------------

  ==> Geometry <==

    Molecular point group: c1
    Full point group: C1

    Geometry (in Bohr), charge = 0, multiplicity = 1:

       Center              X                  Y                   Z               Mass       
    ------------   -----------------  -----------------  -----------------  -----------------
         N            6.279812100000    -4.253033720000     0.193138650000    14.003074004430
         N            6.068707770000    -2.281256970000     1.805443170000    14.003074004430
         H            3.668711560000    -5.646289410000    -1.966840010000     1.007825032230
         H            0.690345210000    -2.375456940000    -0.428642360000     1.007825032230
         H            3.359174420000     0.176506010000     3.092650170000     1.007825032230
         H            7.352667820000    -1.994613110000     2.906807020000     1.007825032230
         C            3.779525860000    -1.215084530000     1.768581720000    12.000000000000
         C            2.382429980000    -2.555055380000     0.046076810000    12.000000000000
         C            4.017714680000    -4.384104900000    -0.887618630000    12.000000000000
         N           33.751852290000     2.400909970000    20.786530780000    14.003074004430
         N           33.870714550000     4.438817000000    19.249357070000    14.003074004430
         H           36.425015030000     0.000000000000    21.504561140000     1.007825032230
         H           39.319651580000     2.442538740000    18.749423630000     1.007825032230
         H           36.383227510000     6.155587760000    16.844787320000     1.007825032230
         H           32.408306340000     5.248794060000    18.863591740000     1.007825032230
         C           36.153550950000     4.768992670000    18.220308220000    12.000000000000
         C           37.636543390000     2.839320460000    19.110230690000    12.000000000000
         C           36.075238060000     1.454152640000    20.701928630000    12.000000000000

  Running in c1 symmetry.

  Rotational constants: A =      0.04478  B =      0.00053  C =      0.00052 [cm^-1]
  Rotational constants: A =   1342.49912  B =     15.84916  C =     15.71371 [MHz]
  Nuclear repulsion =  368.491217573805159

  Charge       = 0
  Multiplicity = 1
  Electrons    = 72
  Nalpha       = 36
  Nbeta        = 36

  ==> Algorithm <==

  SCF Algorithm Type is DF.
  DIIS enabled.
  MOM disabled.
  Fractional occupation disabled.
  Guess Type is SAD.
  Energy threshold   = 1.00e-10
  Density threshold  = 1.00e-10
  Integral threshold = 1.00e-12

  ==> Primary Basis <==

  Basis Set: AUG-CC-PVDZ
    Blend: AUG-CC-PVDZ
    Number of shells: 130
    Number of basis functions: 302
    Number of Cartesian functions: 322
    Spherical Harmonics?: true
    Max angular momentum: 2

   => Loading Basis Set <=

    Name: (AUG-CC-PVDZ AUX)
    Role: JKFIT
    Keyword: DF_BASIS_SCF
    atoms 1-2, 10-11 entry N          line   212 file /theoryfs2/ds/csargent/miniconda3/envs/cle/share/psi4/basis/aug-cc-pvdz-jkfit.gbs 
    atoms 3-6, 12-15 entry H          line    70 file /theoryfs2/ds/csargent/miniconda3/envs/cle/share/psi4/basis/aug-cc-pvdz-jkfit.gbs 
    atoms 7-9, 16-18 entry C          line   154 file /theoryfs2/ds/csargent/miniconda3/envs/cle/share/psi4/basis/aug-cc-pvdz-jkfit.gbs 

  ==> Integral Setup <==

  ==> DiskDFJK: Density-Fitted J/K Matrices <==

    J tasked:                  Yes
    K tasked:                  Yes
    wK tasked:                  No
    OpenMP threads:              6
    Integrals threads:           6
    Memory [MiB]:             5006
    Algorithm:                Core
    Integral Cache:           SAVE
    Schwarz Cutoff:          1E-12
    Fitting Condition:       1E-10

   => Auxiliary Basis Set <=

  Basis Set: (AUG-CC-PVDZ AUX)
    Blend: AUG-CC-PVDZ-JKFIT
    Number of shells: 376
    Number of basis functions: 1116
    Number of Cartesian functions: 1290
    Spherical Harmonics?: true
    Max angular momentum: 3

  Minimum eigenvalue in the overlap matrix is 3.0324468945E-05.
  Reciprocal condition number of the overlap matrix is 2.4867199080E-06.
    Using symmetric orthogonalization.

  ==> Pre-Iterations <==

  SCF Guess: Superposition of Atomic Densities via on-the-fly atomic UHF (no occupation information).

   -------------------------
    Irrep   Nso     Nmo    
   -------------------------
     A        302     302 
   -------------------------
    Total     302     302
   -------------------------

  ==> Iterations <==

                           Total Energy        Delta E     RMS |[F,P]|

   @DF-RHF iter SAD:  -449.44445657255653   -4.49444e+02   0.00000e+00 
   @DF-RHF iter   1:  -449.27101383445250    1.73443e-01   2.12832e-03 DIIS
   @DF-RHF iter   2:  -449.47973545026690   -2.08722e-01   9.74195e-04 DIIS
   @DF-RHF iter   3:  -449.52159949968950   -4.18640e-02   2.10387e-04 DIIS
   @DF-RHF iter   4:  -449.52437093320498   -2.77143e-03   8.57699e-05 DIIS
   @DF-RHF iter   5:  -449.52472889529867   -3.57962e-04   1.69526e-05 DIIS
   @DF-RHF iter   6:  -449.52476279999075   -3.39047e-05   7.02595e-06 DIIS
   @DF-RHF iter   7:  -449.52477070266491   -7.90267e-06   3.10164e-06 DIIS
   @DF-RHF iter   8:  -449.52477222819164   -1.52553e-06   1.43843e-06 DIIS
   @DF-RHF iter   9:  -449.52477256436373   -3.36172e-07   4.01416e-07 DIIS
   @DF-RHF iter  10:  -449.52477258208108   -1.77174e-08   1.20908e-07 DIIS
   @DF-RHF iter  11:  -449.52477258346153   -1.38044e-09   2.82328e-08 DIIS
   @DF-RHF iter  12:  -449.52477258355356   -9.20295e-11   8.21750e-09 DIIS
   @DF-RHF iter  13:  -449.52477258356186   -8.29914e-12   4.00419e-09 DIIS
   @DF-RHF iter  14:  -449.52477258356316   -1.30740e-12   1.37999e-09 DIIS
   @DF-RHF iter  15:  -449.52477258356402   -8.52651e-13   5.88440e-10 DIIS
   @DF-RHF iter  16:  -449.52477258356396    5.68434e-14   1.79402e-10 DIIS
   @DF-RHF iter  17:  -449.52477258356373    2.27374e-13   6.44590e-11 DIIS
  Energy and wave function converged.


  ==> Post-Iterations <==

    Orbital Energies [Eh]
    ---------------------

    Doubly Occupied:                                                      

       1A    -15.636404     2A    -15.636237     3A    -15.592454  
       4A    -15.592326     5A    -11.280060     6A    -11.279909  
       7A    -11.237915     8A    -11.237795     9A    -11.210028  
      10A    -11.209906    11A     -1.387170    12A     -1.386935  
      13A     -1.122060    14A     -1.121915    15A     -1.067082  
      16A     -1.066913    17A     -0.872920    18A     -0.872781  
      19A     -0.837192    20A     -0.837074    21A     -0.757427  
      22A     -0.757308    23A     -0.645904    24A     -0.645759  
      25A     -0.620978    26A     -0.620847    27A     -0.609345  
      28A     -0.609154    29A     -0.584057    30A     -0.583935  
      31A     -0.461583    32A     -0.461415    33A     -0.370875  
      34A     -0.370734    35A     -0.346211    36A     -0.346062  

    Virtual:                                                              

      37A      0.030569    38A      0.030741    39A      0.042292  
      40A      0.042359    41A      0.048964    42A      0.049157  
      43A      0.063358    44A      0.063513    45A      0.100851  
      46A      0.100971    47A      0.103858    48A      0.104019  
      49A      0.117078    50A      0.117171    51A      0.126118  
      52A      0.126243    53A      0.132899    54A      0.133057  
      55A      0.138301    56A      0.138378    57A      0.141396  
      58A      0.141484    59A      0.156785    60A      0.156872  
      61A      0.164494    62A      0.164577    63A      0.170914  
      64A      0.171058    65A      0.178261    66A      0.178398  
      67A      0.195801    68A      0.196020    69A      0.204620  
      70A      0.204787    71A      0.205966    72A      0.206153  
      73A      0.240099    74A      0.240228    75A      0.243462  
      76A      0.243604    77A      0.244780    78A      0.244960  
      79A      0.270972    80A      0.271120    81A      0.278891  
      82A      0.279050    83A      0.300864    84A      0.301007  
      85A      0.324980    86A      0.325124    87A      0.352192  
      88A      0.352339    89A      0.355217    90A      0.355344  
      91A      0.374763    92A      0.374895    93A      0.395913  
      94A      0.396042    95A      0.402583    96A      0.402722  
      97A      0.414889    98A      0.414985    99A      0.431945  
     100A      0.432118   101A      0.443217   102A      0.443377  
     103A      0.453245   104A      0.453381   105A      0.459681  
     106A      0.459806   107A      0.478474   108A      0.478640  
     109A      0.498391   110A      0.498534   111A      0.508538  
     112A      0.508679   113A      0.521799   114A      0.521899  
     115A      0.541428   116A      0.541546   117A      0.574250  
     118A      0.574418   119A      0.586168   120A      0.586307  
     121A      0.590397   122A      0.590522   123A      0.602279  
     124A      0.602394   125A      0.620829   126A      0.620936  
     127A      0.645968   128A      0.646094   129A      0.655169  
     130A      0.655278   131A      0.676020   132A      0.676150  
     133A      0.697891   134A      0.698026   135A      0.700225  
     136A      0.700379   137A      0.721492   138A      0.721650  
     139A      0.724968   140A      0.725100   141A      0.747565  
     142A      0.747696   143A      0.758494   144A      0.758577  
     145A      0.773149   146A      0.773305   147A      0.781309  
     148A      0.781467   149A      0.828349   150A      0.828493  
     151A      0.838072   152A      0.838218   153A      0.848235  
     154A      0.848377   155A      0.881251   156A      0.881376  
     157A      0.888613   158A      0.888751   159A      0.906797  
     160A      0.906937   161A      0.924631   162A      0.924801  
     163A      0.942443   164A      0.942567   165A      0.978061  
     166A      0.978213   167A      0.984700   168A      0.984838  
     169A      1.011001   170A      1.011139   171A      1.046442  
     172A      1.046594   173A      1.066355   174A      1.066485  
     175A      1.100678   176A      1.100836   177A      1.127944  
     178A      1.128046   179A      1.133988   180A      1.134182  
     181A      1.150094   182A      1.150224   183A      1.175012  
     184A      1.175154   185A      1.220374   186A      1.220537  
     187A      1.269415   188A      1.269542   189A      1.303226  
     190A      1.303327   191A      1.311262   192A      1.311389  
     193A      1.365631   194A      1.365795   195A      1.400893  
     196A      1.401029   197A      1.474529   198A      1.474676  
     199A      1.511854   200A      1.512014   201A      1.525988  
     202A      1.526114   203A      1.560824   204A      1.560975  
     205A      1.590743   206A      1.590866   207A      1.608532  
     208A      1.608655   209A      1.637296   210A      1.637426  
     211A      1.669347   212A      1.669457   213A      1.703479  
     214A      1.703621   215A      1.723801   216A      1.723937  
     217A      1.749095   218A      1.749201   219A      1.764210  
     220A      1.764358   221A      1.804872   222A      1.805035  
     223A      1.875434   224A      1.875618   225A      1.932249  
     226A      1.932377   227A      1.943421   228A      1.943544  
     229A      1.987992   230A      1.988054   231A      2.021295  
     232A      2.021432   233A      2.057506   234A      2.057598  
     235A      2.088648   236A      2.088823   237A      2.144550  
     238A      2.144674   239A      2.189846   240A      2.189989  
     241A      2.200680   242A      2.200814   243A      2.230289  
     244A      2.230445   245A      2.275686   246A      2.275813  
     247A      2.307472   248A      2.307625   249A      2.360495  
     250A      2.360703   251A      2.388960   252A      2.389116  
     253A      2.393572   254A      2.393807   255A      2.435026  
     256A      2.435232   257A      2.464758   258A      2.464953  
     259A      2.531625   260A      2.531784   261A      2.570034  
     262A      2.570219   263A      2.584643   264A      2.584701  
     265A      2.642795   266A      2.642947   267A      2.732848  
     268A      2.733013   269A      2.826647   270A      2.826825  
     271A      2.834547   272A      2.834738   273A      2.901376  
     274A      2.901575   275A      2.918390   276A      2.918582  
     277A      2.999036   278A      2.999143   279A      3.055146  
     280A      3.055310   281A      3.092272   282A      3.092345  
     283A      3.122543   284A      3.122716   285A      3.188855  
     286A      3.188918   287A      3.221873   288A      3.221994  
     289A      3.297749   290A      3.297853   291A      3.380067  
     292A      3.380220   293A      3.520597   294A      3.520714  
     295A      3.686141   296A      3.686550   297A      3.889077  
     298A      3.889313   299A      4.209146   300A      4.209415  
     301A      4.462884   302A      4.463221  

    Final Occupation by Irrep:
              A 
    DOCC [    36 ]

  @DF-RHF Final Energy:  -449.52477258356373

   => Energetics <=

    Nuclear Repulsion Energy =            368.4912175738051587
    One-Electron Energy =               -1337.4786462876938913
    Two-Electron Energy =                 519.4626561303249446
    Total Energy =                       -449.5247725835637311

Computation Completed


Properties will be evaluated at   0.000000,   0.000000,   0.000000 [a0]

Properties computed using the SCF density matrix

  Nuclear Dipole Moment: [e a0]
     X:  1439.6747      Y:    11.5944      Z:   727.5647

  Electronic Dipole Moment: [e a0]
     X: -1439.7856      Y:   -10.4000      Z:  -727.6880

  Dipole Moment: [e a0]
     X:    -0.1109      Y:     1.1945      Z:    -0.1234     Total:     1.2059

  Dipole Moment: [D]
     X:    -0.2818      Y:     3.0360      Z:    -0.3136     Total:     3.0651


*** tstop() called on ds1 at Mon Oct  4 14:51:15 2021
Module time:
	user time   =      22.08 seconds =       0.37 minutes
	system time =       0.57 seconds =       0.01 minutes
	total time  =          4 seconds =       0.07 minutes
Total time:
	user time   =      22.08 seconds =       0.37 minutes
	system time =       0.57 seconds =       0.01 minutes
	total time  =          4 seconds =       0.07 minutes

  //>>>>>>>>>>>>>>>>>>>>>>>>>>>>>>>>>>>//
  //            Monomer A HF           //
  //<<<<<<<<<<<<<<<<<<<<<<<<<<<<<<<<<<<//


*** tstart() called on ds1
*** at Mon Oct  4 14:51:15 2021

   => Loading Basis Set <=

    Name: AUG-CC-PVDZ
    Role: ORBITAL
    Keyword: BASIS
    atoms 1-2, 10-11 entry N          line   218 file /theoryfs2/ds/csargent/miniconda3/envs/cle/share/psi4/basis/aug-cc-pvdz.gbs 
    atoms 3-6, 12-15 entry H          line    40 file /theoryfs2/ds/csargent/miniconda3/envs/cle/share/psi4/basis/aug-cc-pvdz.gbs 
    atoms 7-9, 16-18 entry C          line   182 file /theoryfs2/ds/csargent/miniconda3/envs/cle/share/psi4/basis/aug-cc-pvdz.gbs 


         ---------------------------------------------------------
                                   SCF
               by Justin Turney, Rob Parrish, Andy Simmonett
                          and Daniel G. A. Smith
                              RHF Reference
                        6 Threads,   6675 MiB Core
         ---------------------------------------------------------

  ==> Geometry <==

    Molecular point group: c1
    Full point group: C1

    Geometry (in Bohr), charge = 0, multiplicity = 1:

       Center              X                  Y                   Z               Mass       
    ------------   -----------------  -----------------  -----------------  -----------------
         N            6.279812100000    -4.253033720000     0.193138650000    14.003074004430
         N            6.068707770000    -2.281256970000     1.805443170000    14.003074004430
         H            3.668711560000    -5.646289410000    -1.966840010000     1.007825032230
         H            0.690345210000    -2.375456940000    -0.428642360000     1.007825032230
         H            3.359174420000     0.176506010000     3.092650170000     1.007825032230
         H            7.352667820000    -1.994613110000     2.906807020000     1.007825032230
         C            3.779525860000    -1.215084530000     1.768581720000    12.000000000000
         C            2.382429980000    -2.555055380000     0.046076810000    12.000000000000
         C            4.017714680000    -4.384104900000    -0.887618630000    12.000000000000
      Gh(N)          33.751852290000     2.400909970000    20.786530780000    14.003074004430
      Gh(N)          33.870714550000     4.438817000000    19.249357070000    14.003074004430
      Gh(H)          36.425015030000     0.000000000000    21.504561140000     1.007825032230
      Gh(H)          39.319651580000     2.442538740000    18.749423630000     1.007825032230
      Gh(H)          36.383227510000     6.155587760000    16.844787320000     1.007825032230
      Gh(H)          32.408306340000     5.248794060000    18.863591740000     1.007825032230
      Gh(C)          36.153550950000     4.768992670000    18.220308220000    12.000000000000
      Gh(C)          37.636543390000     2.839320460000    19.110230690000    12.000000000000
      Gh(C)          36.075238060000     1.454152640000    20.701928630000    12.000000000000

  Running in c1 symmetry.

  Rotational constants: A =      0.04478  B =      0.00053  C =      0.00052 [cm^-1]
  Rotational constants: A =   1342.49912  B =     15.84916  C =     15.71371 [MHz]
  Nuclear repulsion =  166.624056450327203

  Charge       = 0
  Multiplicity = 1
  Electrons    = 36
  Nalpha       = 18
  Nbeta        = 18

  ==> Algorithm <==

  SCF Algorithm Type is DF.
  DIIS enabled.
  MOM disabled.
  Fractional occupation disabled.
  Guess Type is SAD.
  Energy threshold   = 1.00e-10
  Density threshold  = 1.00e-10
  Integral threshold = 1.00e-12

  ==> Primary Basis <==

  Basis Set: AUG-CC-PVDZ
    Blend: AUG-CC-PVDZ
    Number of shells: 130
    Number of basis functions: 302
    Number of Cartesian functions: 322
    Spherical Harmonics?: true
    Max angular momentum: 2

   => Loading Basis Set <=

    Name: (AUG-CC-PVDZ AUX)
    Role: JKFIT
    Keyword: DF_BASIS_SCF
    atoms 1-2, 10-11 entry N          line   212 file /theoryfs2/ds/csargent/miniconda3/envs/cle/share/psi4/basis/aug-cc-pvdz-jkfit.gbs 
    atoms 3-6, 12-15 entry H          line    70 file /theoryfs2/ds/csargent/miniconda3/envs/cle/share/psi4/basis/aug-cc-pvdz-jkfit.gbs 
    atoms 7-9, 16-18 entry C          line   154 file /theoryfs2/ds/csargent/miniconda3/envs/cle/share/psi4/basis/aug-cc-pvdz-jkfit.gbs 

  ==> Integral Setup <==

  ==> DiskDFJK: Density-Fitted J/K Matrices <==

    J tasked:                  Yes
    K tasked:                  Yes
    wK tasked:                  No
    OpenMP threads:              6
    Integrals threads:           6
    Memory [MiB]:             5006
    Algorithm:                Core
    Integral Cache:           LOAD
    Schwarz Cutoff:          1E-12
    Fitting Condition:       1E-10

   => Auxiliary Basis Set <=

  Basis Set: (AUG-CC-PVDZ AUX)
    Blend: AUG-CC-PVDZ-JKFIT
    Number of shells: 376
    Number of basis functions: 1116
    Number of Cartesian functions: 1290
    Spherical Harmonics?: true
    Max angular momentum: 3

  Minimum eigenvalue in the overlap matrix is 3.0324468945E-05.
  Reciprocal condition number of the overlap matrix is 2.4867199080E-06.
    Using symmetric orthogonalization.

  ==> Pre-Iterations <==

  SCF Guess: Superposition of Atomic Densities via on-the-fly atomic UHF (no occupation information).

   -------------------------
    Irrep   Nso     Nmo    
   -------------------------
     A        302     302 
   -------------------------
    Total     302     302
   -------------------------

  ==> Iterations <==

                           Total Energy        Delta E     RMS |[F,P]|

   @DF-RHF iter SAD:  -224.72194801314592   -2.24722e+02   0.00000e+00 
   @DF-RHF iter   1:  -224.63549170087325    8.64563e-02   1.50472e-03 DIIS
   @DF-RHF iter   2:  -224.73984613355856   -1.04354e-01   6.88462e-04 DIIS
   @DF-RHF iter   3:  -224.76075487238992   -2.09087e-02   1.48626e-04 DIIS
   @DF-RHF iter   4:  -224.76213931617104   -1.38444e-03   6.05310e-05 DIIS
   @DF-RHF iter   5:  -224.76231767093026   -1.78355e-04   1.19893e-05 DIIS
   @DF-RHF iter   6:  -224.76233462840457   -1.69575e-05   4.96772e-06 DIIS
   @DF-RHF iter   7:  -224.76233858444215   -3.95604e-06   2.18806e-06 DIIS
   @DF-RHF iter   8:  -224.76233934518436   -7.60742e-07   1.01700e-06 DIIS
   @DF-RHF iter   9:  -224.76233951282634   -1.67642e-07   2.83302e-07 DIIS
   @DF-RHF iter  10:  -224.76233952164702   -8.82068e-09   8.55547e-08 DIIS
   @DF-RHF iter  11:  -224.76233952233707   -6.90051e-10   1.99714e-08 DIIS
   @DF-RHF iter  12:  -224.76233952238255   -4.54747e-11   5.81092e-09 DIIS
   @DF-RHF iter  13:  -224.76233952238704   -4.49063e-12   2.83097e-09 DIIS
   @DF-RHF iter  14:  -224.76233952238778   -7.38964e-13   9.75191e-10 DIIS
   @DF-RHF iter  15:  -224.76233952238772    5.68434e-14   4.15547e-10 DIIS
   @DF-RHF iter  16:  -224.76233952238820   -4.83169e-13   1.25997e-10 DIIS
   @DF-RHF iter  17:  -224.76233952238812    8.52651e-14   4.47777e-11 DIIS
  Energy and wave function converged.


  ==> Post-Iterations <==

    Orbital Energies [Eh]
    ---------------------

    Doubly Occupied:                                                      

       1A    -15.636223     2A    -15.592313     3A    -11.279894  
       4A    -11.237784     5A    -11.209891     6A     -1.386922  
       7A     -1.121901     8A     -1.066898     9A     -0.872768  
      10A     -0.837061    11A     -0.757292    12A     -0.645746  
      13A     -0.620834    14A     -0.609140    15A     -0.583920  
      16A     -0.461404    17A     -0.370721    18A     -0.346048  

    Virtual:                                                              

      19A      0.022561    20A      0.030764    21A      0.039917  
      22A      0.042368    23A      0.044002    24A      0.049159  
      25A      0.063520    26A      0.065718    27A      0.083877  
      28A      0.090605    29A      0.098832    30A      0.100998  
      31A      0.104029    32A      0.117179    33A      0.118261  
      34A      0.125751    35A      0.126270    36A      0.128166  
      37A      0.133069    38A      0.133270    39A      0.134040  
      40A      0.138403    41A      0.141490    42A      0.156889  
      43A      0.158469    44A      0.164592    45A      0.165836  
      46A      0.171075    47A      0.178408    48A      0.179046  
      49A      0.195357    50A      0.196042    51A      0.201330  
      52A      0.204793    53A      0.206162    54A      0.222793  
      55A      0.225034    56A      0.228145    57A      0.235420  
      58A      0.240236    59A      0.243626    60A      0.244965  
      61A      0.263938    62A      0.270842    63A      0.271127  
      64A      0.279080    65A      0.301010    66A      0.321808  
      67A      0.325148    68A      0.339987    69A      0.352358  
      70A      0.355357    71A      0.366434    72A      0.372821  
      73A      0.374907    74A      0.383635    75A      0.396061  
      76A      0.402741    77A      0.414998    78A      0.427349  
      79A      0.431982    80A      0.432132    81A      0.441114  
      82A      0.442258    83A      0.443385    84A      0.453393  
      85A      0.455880    86A      0.457324    87A      0.459816  
      88A      0.461757    89A      0.478655    90A      0.498543  
      91A      0.508690    92A      0.509615    93A      0.519282  
      94A      0.521917    95A      0.532999    96A      0.537959  
      97A      0.541560    98A      0.559215    99A      0.568663  
     100A      0.571768   101A      0.574432   102A      0.586318  
     103A      0.590538   104A      0.595078   105A      0.602413  
     106A      0.613286   107A      0.620953   108A      0.621142  
     109A      0.633436   110A      0.646110   111A      0.655295  
     112A      0.676162   113A      0.690743   114A      0.698041  
     115A      0.700391   116A      0.707702   117A      0.719356  
     118A      0.721667   119A      0.725115   120A      0.735586  
     121A      0.745298   122A      0.747709   123A      0.758592  
     124A      0.773318   125A      0.781481   126A      0.789601  
     127A      0.798016   128A      0.814365   129A      0.820847  
     130A      0.828504   131A      0.838230   132A      0.848394  
     133A      0.851884   134A      0.855016   135A      0.870938  
     136A      0.881017   137A      0.881395   138A      0.888767  
     139A      0.895610   140A      0.906950   141A      0.916059  
     142A      0.924815   143A      0.942582   144A      0.952021  
     145A      0.978222   146A      0.984850   147A      0.997109  
     148A      1.011149   149A      1.024129   150A      1.030154  
     151A      1.046606   152A      1.051568   153A      1.066503  
     154A      1.071091   155A      1.080964   156A      1.100852  
     157A      1.108143   158A      1.128058   159A      1.134196  
     160A      1.150235   161A      1.158747   162A      1.166261  
     163A      1.175168   164A      1.184954   165A      1.220548  
     166A      1.221682   167A      1.237021   168A      1.267947  
     169A      1.269556   170A      1.293702   171A      1.303342  
     172A      1.311399   173A      1.315136   174A      1.340671  
     175A      1.365807   176A      1.381834   177A      1.401043  
     178A      1.434975   179A      1.444723   180A      1.474691  
     181A      1.493184   182A      1.507043   183A      1.512027  
     184A      1.526129   185A      1.560989   186A      1.590882  
     187A      1.608669   188A      1.637437   189A      1.669472  
     190A      1.676701   191A      1.688867   192A      1.703634  
     193A      1.723950   194A      1.749215   195A      1.764373  
     196A      1.805048   197A      1.875632   198A      1.932390  
     199A      1.943558   200A      1.988067   201A      2.021445  
     202A      2.041112   203A      2.057611   204A      2.088839  
     205A      2.109114   206A      2.134836   207A      2.144687  
     208A      2.168176   209A      2.190005   210A      2.200827  
     211A      2.216650   212A      2.230457   213A      2.233905  
     214A      2.261909   215A      2.275825   216A      2.277769  
     217A      2.289300   218A      2.307640   219A      2.335671  
     220A      2.360716   221A      2.380640   222A      2.389130  
     223A      2.393822   224A      2.394567   225A      2.435246  
     226A      2.443900   227A      2.464967   228A      2.478337  
     229A      2.499996   230A      2.513633   231A      2.531798  
     232A      2.548862   233A      2.570232   234A      2.584716  
     235A      2.631357   236A      2.642961   237A      2.667549  
     238A      2.703039   239A      2.718916   240A      2.733029  
     241A      2.826838   242A      2.827980   243A      2.834751  
     244A      2.869811   245A      2.890060   246A      2.901587  
     247A      2.918598   248A      2.945117   249A      2.999157  
     250A      3.028012   251A      3.055324   252A      3.089773  
     253A      3.092358   254A      3.122730   255A      3.140081  
     256A      3.181905   257A      3.188930   258A      3.222008  
     259A      3.254172   260A      3.289139   261A      3.297865  
     262A      3.355670   263A      3.380235   264A      3.395642  
     265A      3.423405   266A      3.448244   267A      3.487235  
     268A      3.497601   269A      3.520727   270A      3.633633  
     271A      3.666981   272A      3.686563   273A      3.735661  
     274A      3.770135   275A      3.851137   276A      3.889327  
     277A      3.964583   278A      4.035642   279A      4.094784  
     280A      4.209428   281A      4.244101   282A      4.448281  
     283A      4.463235   284A      4.658493   285A      4.708175  
     286A      4.749990   287A      4.810861   288A      4.994888  
     289A      5.076737   290A      5.241280   291A      5.531507  
     292A      5.669041   293A      5.826685   294A      6.107056  
     295A      6.318260   296A      6.707628   297A      6.967518  
     298A     18.111242   299A     18.648116   300A     19.373755  
     301A     25.245449   302A     25.705334  

    Final Occupation by Irrep:
              A 
    DOCC [    18 ]

  @DF-RHF Final Energy:  -224.76233952238812

   => Energetics <=

    Nuclear Repulsion Energy =            166.6240564503272026
    One-Electron Energy =                -633.4992733882172615
    Two-Electron Energy =                 242.1128774155019414
    Total Energy =                       -224.7623395223881175

Computation Completed


Properties will be evaluated at   0.000000,   0.000000,   0.000000 [a0]

Properties computed using the SCF density matrix

  Nuclear Dipole Moment: [e a0]
     X:   162.5886      Y:  -104.5054      Z:    23.1563

  Electronic Dipole Moment: [e a0]
     X:  -162.9913      Y:   105.1370      Z:   -22.5767

  Dipole Moment: [e a0]
     X:    -0.4027      Y:     0.6317      Z:     0.5796     Total:     0.9472

  Dipole Moment: [D]
     X:    -1.0235      Y:     1.6055      Z:     1.4733     Total:     2.4075


*** tstop() called on ds1 at Mon Oct  4 14:51:19 2021
Module time:
	user time   =      15.84 seconds =       0.26 minutes
	system time =       0.32 seconds =       0.01 minutes
	total time  =          4 seconds =       0.07 minutes
Total time:
	user time   =      37.95 seconds =       0.63 minutes
	system time =       0.89 seconds =       0.01 minutes
	total time  =          8 seconds =       0.13 minutes

  //>>>>>>>>>>>>>>>>>>>>>>>>>>>>>>>>>>>//
  //            Monomer B HF           //
  //<<<<<<<<<<<<<<<<<<<<<<<<<<<<<<<<<<<//


*** tstart() called on ds1
*** at Mon Oct  4 14:51:19 2021

   => Loading Basis Set <=

    Name: AUG-CC-PVDZ
    Role: ORBITAL
    Keyword: BASIS
    atoms 1-2, 10-11 entry N          line   218 file /theoryfs2/ds/csargent/miniconda3/envs/cle/share/psi4/basis/aug-cc-pvdz.gbs 
    atoms 3-6, 12-15 entry H          line    40 file /theoryfs2/ds/csargent/miniconda3/envs/cle/share/psi4/basis/aug-cc-pvdz.gbs 
    atoms 7-9, 16-18 entry C          line   182 file /theoryfs2/ds/csargent/miniconda3/envs/cle/share/psi4/basis/aug-cc-pvdz.gbs 


         ---------------------------------------------------------
                                   SCF
               by Justin Turney, Rob Parrish, Andy Simmonett
                          and Daniel G. A. Smith
                              RHF Reference
                        6 Threads,   6675 MiB Core
         ---------------------------------------------------------

  ==> Geometry <==

    Molecular point group: c1
    Full point group: C1

    Geometry (in Bohr), charge = 0, multiplicity = 1:

       Center              X                  Y                   Z               Mass       
    ------------   -----------------  -----------------  -----------------  -----------------
      Gh(N)           6.279812100000    -4.253033720000     0.193138650000    14.003074004430
      Gh(N)           6.068707770000    -2.281256970000     1.805443170000    14.003074004430
      Gh(H)           3.668711560000    -5.646289410000    -1.966840010000     1.007825032230
      Gh(H)           0.690345210000    -2.375456940000    -0.428642360000     1.007825032230
      Gh(H)           3.359174420000     0.176506010000     3.092650170000     1.007825032230
      Gh(H)           7.352667820000    -1.994613110000     2.906807020000     1.007825032230
      Gh(C)           3.779525860000    -1.215084530000     1.768581720000    12.000000000000
      Gh(C)           2.382429980000    -2.555055380000     0.046076810000    12.000000000000
      Gh(C)           4.017714680000    -4.384104900000    -0.887618630000    12.000000000000
         N           33.751852290000     2.400909970000    20.786530780000    14.003074004430
         N           33.870714550000     4.438817000000    19.249357070000    14.003074004430
         H           36.425015030000     0.000000000000    21.504561140000     1.007825032230
         H           39.319651580000     2.442538740000    18.749423630000     1.007825032230
         H           36.383227510000     6.155587760000    16.844787320000     1.007825032230
         H           32.408306340000     5.248794060000    18.863591740000     1.007825032230
         C           36.153550950000     4.768992670000    18.220308220000    12.000000000000
         C           37.636543390000     2.839320460000    19.110230690000    12.000000000000
         C           36.075238060000     1.454152640000    20.701928630000    12.000000000000

  Running in c1 symmetry.

  Rotational constants: A =      0.04478  B =      0.00053  C =      0.00052 [cm^-1]
  Rotational constants: A =   1342.49912  B =     15.84916  C =     15.71371 [MHz]
  Nuclear repulsion =  166.628602905281639

  Charge       = 0
  Multiplicity = 1
  Electrons    = 36
  Nalpha       = 18
  Nbeta        = 18

  ==> Algorithm <==

  SCF Algorithm Type is DF.
  DIIS enabled.
  MOM disabled.
  Fractional occupation disabled.
  Guess Type is SAD.
  Energy threshold   = 1.00e-10
  Density threshold  = 1.00e-10
  Integral threshold = 1.00e-12

  ==> Primary Basis <==

  Basis Set: AUG-CC-PVDZ
    Blend: AUG-CC-PVDZ
    Number of shells: 130
    Number of basis functions: 302
    Number of Cartesian functions: 322
    Spherical Harmonics?: true
    Max angular momentum: 2

   => Loading Basis Set <=

    Name: (AUG-CC-PVDZ AUX)
    Role: JKFIT
    Keyword: DF_BASIS_SCF
    atoms 1-2, 10-11 entry N          line   212 file /theoryfs2/ds/csargent/miniconda3/envs/cle/share/psi4/basis/aug-cc-pvdz-jkfit.gbs 
    atoms 3-6, 12-15 entry H          line    70 file /theoryfs2/ds/csargent/miniconda3/envs/cle/share/psi4/basis/aug-cc-pvdz-jkfit.gbs 
    atoms 7-9, 16-18 entry C          line   154 file /theoryfs2/ds/csargent/miniconda3/envs/cle/share/psi4/basis/aug-cc-pvdz-jkfit.gbs 

  ==> Integral Setup <==

  ==> DiskDFJK: Density-Fitted J/K Matrices <==

    J tasked:                  Yes
    K tasked:                  Yes
    wK tasked:                  No
    OpenMP threads:              6
    Integrals threads:           6
    Memory [MiB]:             5006
    Algorithm:                Core
    Integral Cache:           LOAD
    Schwarz Cutoff:          1E-12
    Fitting Condition:       1E-10

   => Auxiliary Basis Set <=

  Basis Set: (AUG-CC-PVDZ AUX)
    Blend: AUG-CC-PVDZ-JKFIT
    Number of shells: 376
    Number of basis functions: 1116
    Number of Cartesian functions: 1290
    Spherical Harmonics?: true
    Max angular momentum: 3

  Minimum eigenvalue in the overlap matrix is 3.0324468945E-05.
  Reciprocal condition number of the overlap matrix is 2.4867199080E-06.
    Using symmetric orthogonalization.

  ==> Pre-Iterations <==

  SCF Guess: Superposition of Atomic Densities via on-the-fly atomic UHF (no occupation information).

   -------------------------
    Irrep   Nso     Nmo    
   -------------------------
     A        302     302 
   -------------------------
    Total     302     302
   -------------------------

  ==> Iterations <==

                           Total Energy        Delta E     RMS |[F,P]|

   @DF-RHF iter SAD:  -224.72250855797557   -2.24723e+02   0.00000e+00 
   @DF-RHF iter   1:  -224.63556596140964    8.69426e-02   1.50490e-03 DIIS
   @DF-RHF iter   2:  -224.73993304935220   -1.04367e-01   6.88620e-04 DIIS
   @DF-RHF iter   3:  -224.76085080288109   -2.09178e-02   1.48614e-04 DIIS
   @DF-RHF iter   4:  -224.76223500153546   -1.38420e-03   6.05151e-05 DIIS
   @DF-RHF iter   5:  -224.76241324603598   -1.78245e-04   1.19848e-05 DIIS
   @DF-RHF iter   6:  -224.76243017918409   -1.69331e-05   4.96323e-06 DIIS
   @DF-RHF iter   7:  -224.76243412702740   -3.94784e-06   2.18627e-06 DIIS
   @DF-RHF iter   8:  -224.76243488656559   -7.59538e-07   1.01631e-06 DIIS
   @DF-RHF iter   9:  -224.76243505407078   -1.67505e-07   2.83280e-07 DIIS
   @DF-RHF iter  10:  -224.76243506288856   -8.81778e-09   8.55270e-08 DIIS
   @DF-RHF iter  11:  -224.76243506357804   -6.89482e-10   1.99678e-08 DIIS
   @DF-RHF iter  12:  -224.76243506362385   -4.58158e-11   5.80973e-09 DIIS
   @DF-RHF iter  13:  -224.76243506362820   -4.34852e-12   2.83582e-09 DIIS
   @DF-RHF iter  14:  -224.76243506362925   -1.05160e-12   9.79832e-10 DIIS
   @DF-RHF iter  15:  -224.76243506362917    8.52651e-14   4.16538e-10 DIIS
   @DF-RHF iter  16:  -224.76243506362920   -2.84217e-14   1.25808e-10 DIIS
   @DF-RHF iter  17:  -224.76243506362900    1.98952e-13   4.47600e-11 DIIS
  Energy and wave function converged.


  ==> Post-Iterations <==

    Orbital Energies [Eh]
    ---------------------

    Doubly Occupied:                                                      

       1A    -15.636233     2A    -15.592291     3A    -11.279903  
       4A    -11.237759     5A    -11.209884     6A     -1.387001  
       7A     -1.121894     8A     -1.066928     9A     -0.872759  
      10A     -0.837039    11A     -0.757272    12A     -0.645745  
      13A     -0.620828    14A     -0.609177    15A     -0.583905  
      16A     -0.461413    17A     -0.370715    18A     -0.346055  

    Virtual:                                                              

      19A      0.022697    20A      0.030764    21A      0.040034  
      22A      0.042369    23A      0.044169    24A      0.049158  
      25A      0.063519    26A      0.065890    27A      0.083986  
      28A      0.090773    29A      0.098976    30A      0.101001  
      31A      0.104028    32A      0.117186    33A      0.118350  
      34A      0.125868    35A      0.126272    36A      0.128256  
      37A      0.133070    38A      0.133379    39A      0.134162  
      40A      0.138399    41A      0.141487    42A      0.156889  
      43A      0.158569    44A      0.164594    45A      0.165964  
      46A      0.171081    47A      0.178407    48A      0.179207  
      49A      0.195529    50A      0.196040    51A      0.201524  
      52A      0.204806    53A      0.206166    54A      0.222977  
      55A      0.225139    56A      0.228280    57A      0.235600  
      58A      0.240240    59A      0.243627    60A      0.244965  
      61A      0.264108    62A      0.271017    63A      0.271138  
      64A      0.279081    65A      0.301024    66A      0.321959  
      67A      0.325138    68A      0.340112    69A      0.352354  
      70A      0.355359    71A      0.366559    72A      0.372931  
      73A      0.374909    74A      0.383758    75A      0.396062  
      76A      0.402744    77A      0.415005    78A      0.427513  
      79A      0.432094    80A      0.432131    81A      0.441215  
      82A      0.442358    83A      0.443379    84A      0.453414  
      85A      0.456044    86A      0.457458    87A      0.459816  
      88A      0.461915    89A      0.478656    90A      0.498544  
      91A      0.508693    92A      0.509755    93A      0.519450  
      94A      0.521953    95A      0.533168    96A      0.538084  
      97A      0.541569    98A      0.559362    99A      0.568855  
     100A      0.571874   101A      0.574428   102A      0.586322  
     103A      0.590547   104A      0.595206   105A      0.602431  
     106A      0.613410   107A      0.620974   108A      0.621292  
     109A      0.633566   110A      0.646111   111A      0.655304  
     112A      0.676168   113A      0.690876   114A      0.698039  
     115A      0.700384   116A      0.707845   117A      0.719494  
     118A      0.721648   119A      0.725121   120A      0.735715  
     121A      0.745415   122A      0.747717   123A      0.758643  
     124A      0.773300   125A      0.781476   126A      0.789752  
     127A      0.798153   128A      0.814488   129A      0.820985  
     130A      0.828513   131A      0.838238   132A      0.848382  
     133A      0.851987   134A      0.855145   135A      0.871069  
     136A      0.881130   137A      0.881396   138A      0.888762  
     139A      0.895745   140A      0.906950   141A      0.916196  
     142A      0.924803   143A      0.942599   144A      0.952161  
     145A      0.978204   146A      0.984853   147A      0.997249  
     148A      1.011170   149A      1.024262   150A      1.030323  
     151A      1.046624   152A      1.051727   153A      1.066503  
     154A      1.071205   155A      1.081085   156A      1.100853  
     157A      1.108289   158A      1.128099   159A      1.134152  
     160A      1.150240   161A      1.158904   162A      1.166412  
     163A      1.175167   164A      1.185094   165A      1.220538  
     166A      1.221838   167A      1.237153   168A      1.268121  
     169A      1.269573   170A      1.293867   171A      1.303390  
     172A      1.311431   173A      1.315277   174A      1.340822  
     175A      1.365802   176A      1.381974   177A      1.401039  
     178A      1.435133   179A      1.444861   180A      1.474706  
     181A      1.493362   182A      1.507163   183A      1.512021  
     184A      1.526136   185A      1.560976   186A      1.590889  
     187A      1.608679   188A      1.637435   189A      1.669494  
     190A      1.676861   191A      1.689044   192A      1.703636  
     193A      1.723957   194A      1.749249   195A      1.764367  
     196A      1.805025   197A      1.875589   198A      1.932406  
     199A      1.943562   200A      1.988139   201A      2.021453  
     202A      2.041227   203A      2.057662   204A      2.088810  
     205A      2.109225   206A      2.134997   207A      2.144708  
     208A      2.168274   209A      2.189999   210A      2.200828  
     211A      2.216798   212A      2.230454   213A      2.234016  
     214A      2.262023   215A      2.275832   216A      2.277918  
     217A      2.289423   218A      2.307637   219A      2.335863  
     220A      2.360646   221A      2.380743   222A      2.389121  
     223A      2.393758   224A      2.394695   225A      2.435199  
     226A      2.444035   227A      2.464942   228A      2.478482  
     229A      2.500058   230A      2.513772   231A      2.531785  
     232A      2.548976   233A      2.570195   234A      2.584820  
     235A      2.631500   236A      2.642959   237A      2.667679  
     238A      2.703175   239A      2.719049   240A      2.733013  
     241A      2.826807   242A      2.828075   243A      2.834707  
     244A      2.869958   245A      2.890187   246A      2.901543  
     247A      2.918563   248A      2.945315   249A      2.999195  
     250A      3.028230   251A      3.055311   252A      3.089991  
     253A      3.092440   254A      3.122703   255A      3.140199  
     256A      3.182140   257A      3.189011   258A      3.222030  
     259A      3.254306   260A      3.289365   261A      3.297913  
     262A      3.355930   263A      3.380219   264A      3.395769  
     265A      3.423650   266A      3.448469   267A      3.487330  
     268A      3.497677   269A      3.520764   270A      3.633741  
     271A      3.667116   272A      3.686295   273A      3.735786  
     274A      3.770251   275A      3.851323   276A      3.889250  
     277A      3.964566   278A      4.035684   279A      4.094925  
     280A      4.209312   281A      4.244255   282A      4.448605  
     283A      4.463032   284A      4.658600   285A      4.708213  
     286A      4.750104   287A      4.810953   288A      4.995040  
     289A      5.076978   290A      5.241624   291A      5.531421  
     292A      5.669128   293A      5.827020   294A      6.106877  
     295A      6.318502   296A      6.708565   297A      6.968045  
     298A     18.111362   299A     18.648038   300A     19.373764  
     301A     25.245736   302A     25.705127  

    Final Occupation by Irrep:
              A 
    DOCC [    18 ]

  @DF-RHF Final Energy:  -224.76243506362900

   => Energetics <=

    Nuclear Repulsion Energy =            166.6286029052816389
    One-Electron Energy =                -633.5084735897806922
    Two-Electron Energy =                 242.1174356208700544
    Total Energy =                       -224.7624350636289989

Computation Completed


Properties will be evaluated at   0.000000,   0.000000,   0.000000 [a0]

Properties computed using the SCF density matrix

  Nuclear Dipole Moment: [e a0]
     X:  1277.0862      Y:   116.0998      Z:   704.4084

  Electronic Dipole Moment: [e a0]
     X: -1276.7952      Y:  -115.5358      Z:  -705.1115

  Dipole Moment: [e a0]
     X:     0.2909      Y:     0.5640      Z:    -0.7031     Total:     0.9472

  Dipole Moment: [D]
     X:     0.7394      Y:     1.4336      Z:    -1.7871     Total:     2.4074


*** tstop() called on ds1 at Mon Oct  4 14:51:22 2021
Module time:
	user time   =      15.56 seconds =       0.26 minutes
	system time =       0.32 seconds =       0.01 minutes
	total time  =          3 seconds =       0.05 minutes
Total time:
	user time   =      53.67 seconds =       0.89 minutes
	system time =       1.22 seconds =       0.02 minutes
	total time  =         11 seconds =       0.18 minutes
  Constructing Basis Sets for SAPT...

   => Loading Basis Set <=

    Name: (AUG-CC-PVDZ AUX)
    Role: RIFIT
    Keyword: DF_BASIS_SAPT
    atoms 1-2, 10-11 entry N          line   158 file /theoryfs2/ds/csargent/miniconda3/envs/cle/share/psi4/basis/aug-cc-pvdz-ri.gbs 
    atoms 3-6, 12-15 entry H          line    30 file /theoryfs2/ds/csargent/miniconda3/envs/cle/share/psi4/basis/aug-cc-pvdz-ri.gbs 
    atoms 7-9, 16-18 entry C          line   112 file /theoryfs2/ds/csargent/miniconda3/envs/cle/share/psi4/basis/aug-cc-pvdz-ri.gbs 


  //>>>>>>>>>>>>>>>>>>>>>>>>>>>>>>>>>>>//
  //               SAPT0               //
  //<<<<<<<<<<<<<<<<<<<<<<<<<<<<<<<<<<<//


*** tstart() called on ds1
*** at Mon Oct  4 14:51:22 2021

        SAPT0  
    Ed Hohenstein
     6 June 2009

      Orbital Information
  --------------------------
    NSO        =       302
    NMO        =       302
    NRI        =       904
    NOCC A     =        18
    NOCC B     =        18
    FOCC A     =         5
    FOCC B     =         5
    NVIR A     =       284
    NVIR B     =       284

    Elst10,r            =     0.000001984601 [Eh]
    Exch10              =     0.000000000000 [Eh]
    Exch10 (S^2)        =     0.000000000000 [Eh]

    Iter     Energy [mEh]          dE [mEh]         Residual      Time [s]
       1      -0.00000900       0.000009003       0.027937871             0
       2      -0.00000811      -0.000000895       0.005930797             0
       3      -0.00000866       0.000000551       0.003173669             0
       4      -0.00000883       0.000000170       0.000565067             1
       5      -0.00000880      -0.000000030       0.000263962             1
       6      -0.00000880      -0.000000002       0.000125213             1
       7      -0.00000880       0.000000003       0.000047552             1
       8      -0.00000880       0.000000000       0.000018798             1
       9      -0.00000880      -0.000000000       0.000003981             1
      10      -0.00000880      -0.000000000       0.000001028             1
      11      -0.00000880       0.000000000       0.000000397             1

    CHF Iterations converged


    Iter     Energy [mEh]          dE [mEh]         Residual      Time [s]
       1      -0.00001712       0.000017120       0.049019328             1
       2      -0.00001544      -0.000001678       0.010772010             1
       3      -0.00001701       0.000001569       0.003964373             1
       4      -0.00001717       0.000000162       0.001375302             1
       5      -0.00001713      -0.000000040       0.000776964             1
       6      -0.00001711      -0.000000024       0.000256525             1
       7      -0.00001711       0.000000002       0.000107477             1
       8      -0.00001711       0.000000004       0.000036445             2
       9      -0.00001711      -0.000000000       0.000012969             2
      10      -0.00001711      -0.000000001       0.000003351             2
      11      -0.00001711       0.000000000       0.000001750             2
      12      -0.00001711       0.000000000       0.000000528             2

    CHF Iterations converged

    Ind20,r (A<-B)      =    -0.000000008800 [Eh]
    Ind20,r (B<-A)      =    -0.000000017114 [Eh]
    Ind20,r             =    -0.000000025914 [Eh]
    Exch-Ind20,r (A<-B) =     0.000000000000 [Eh]
    Exch-Ind20,r (B<-A) =     0.000000000000 [Eh]
    Exch-Ind20,r        =     0.000000000000 [Eh]
    Disp20              =    -0.000000464221 [Eh]
    Disp20 (SS)         =    -0.000000232111 [Eh]
    Disp20 (OS)         =    -0.000000232111 [Eh]
    Exch-Disp20         =     0.000000000000 [Eh]
    Exch-Disp20 (SS)    =     0.000000000000 [Eh]
    Exch-Disp20 (OS)    =     0.000000000000 [Eh]

    SAPT Results 
  --------------------------------------------------------------------------------------------------------
    Electrostatics                  0.00198460 [mEh]       0.00124536 [kcal/mol]       0.00521057 [kJ/mol]
      Elst10,r                      0.00198460 [mEh]       0.00124536 [kcal/mol]       0.00521057 [kJ/mol]

    Exchange                        0.00000000 [mEh]       0.00000000 [kcal/mol]       0.00000000 [kJ/mol]
      Exch10                        0.00000000 [mEh]       0.00000000 [kcal/mol]       0.00000000 [kJ/mol]
      Exch10(S^2)                   0.00000000 [mEh]       0.00000000 [kcal/mol]       0.00000000 [kJ/mol]

    Induction                       0.00001785 [mEh]       0.00001120 [kcal/mol]       0.00004687 [kJ/mol]
      Ind20,r                      -0.00002591 [mEh]      -0.00001626 [kcal/mol]      -0.00006804 [kJ/mol]
      Exch-Ind20,r                  0.00000000 [mEh]       0.00000000 [kcal/mol]       0.00000000 [kJ/mol]
      delta HF,r (2)                0.00004377 [mEh]       0.00002746 [kcal/mol]       0.00011491 [kJ/mol]

    Dispersion                     -0.00046422 [mEh]      -0.00029130 [kcal/mol]      -0.00121881 [kJ/mol]
      Disp20                       -0.00046422 [mEh]      -0.00029130 [kcal/mol]      -0.00121881 [kJ/mol]
      Exch-Disp20                   0.00000000 [mEh]       0.00000000 [kcal/mol]       0.00000000 [kJ/mol]
      Disp20 (SS)                  -0.00023211 [mEh]      -0.00014565 [kcal/mol]      -0.00060941 [kJ/mol]
      Disp20 (OS)                  -0.00023211 [mEh]      -0.00014565 [kcal/mol]      -0.00060941 [kJ/mol]
      Exch-Disp20 (SS)              0.00000000 [mEh]       0.00000000 [kcal/mol]       0.00000000 [kJ/mol]
      Exch-Disp20 (OS)              0.00000000 [mEh]       0.00000000 [kcal/mol]       0.00000000 [kJ/mol]

  Total HF                          0.00200245 [mEh]       0.00125656 [kcal/mol]       0.00525744 [kJ/mol]
  Total SAPT0                       0.00153823 [mEh]       0.00096526 [kcal/mol]       0.00403863 [kJ/mol]

  Special recipe for scaled SAPT0 (see Manual):
    Electrostatics sSAPT0           0.00198460 [mEh]       0.00124536 [kcal/mol]       0.00521057 [kJ/mol]
    Exchange sSAPT0                 0.00000000 [mEh]       0.00000000 [kcal/mol]       0.00000000 [kJ/mol]
    Induction sSAPT0                0.00001785 [mEh]       0.00001120 [kcal/mol]       0.00004687 [kJ/mol]
    Dispersion sSAPT0              -0.00046422 [mEh]      -0.00029130 [kcal/mol]      -0.00121881 [kJ/mol]
  Total sSAPT0                      0.00153823 [mEh]       0.00096526 [kcal/mol]       0.00403863 [kJ/mol]
  --------------------------------------------------------------------------------------------------------

*** tstop() called on ds1 at Mon Oct  4 14:51:31 2021
Module time:
	user time   =      44.22 seconds =       0.74 minutes
	system time =       3.92 seconds =       0.07 minutes
	total time  =          9 seconds =       0.15 minutes
Total time:
	user time   =      98.75 seconds =       1.65 minutes
	system time =       5.17 seconds =       0.09 minutes
	total time  =         20 seconds =       0.33 minutes


Warning! sapt0 does not have an associated derived wavefunction.The returned wavefunction is the dimer SCF wavefunction.


    Psi4 stopped on: Monday, 04 October 2021 02:51PM
    Psi4 wall time for execution: 0:00:21.14

*** Psi4 exiting successfully. Buy a developer a beer!
