
    -----------------------------------------------------------------------
          Psi4: An Open-Source Ab Initio Electronic Structure Package
                               Psi4 1.4rc3 

                         Git: Rev {HEAD} 080dba6 


    D. G. A. Smith, L. A. Burns, A. C. Simmonett, R. M. Parrish,
    M. C. Schieber, R. Galvelis, P. Kraus, H. Kruse, R. Di Remigio,
    A. Alenaizan, A. M. James, S. Lehtola, J. P. Misiewicz, M. Scheurer,
    R. A. Shaw, J. B. Schriber, Y. Xie, Z. L. Glick, D. A. Sirianni,
    J. S. O'Brien, J. M. Waldrop, A. Kumar, E. G. Hohenstein,
    B. P. Pritchard, B. R. Brooks, H. F. Schaefer III, A. Yu. Sokolov,
    K. Patkowski, A. E. DePrince III, U. Bozkaya, R. A. King,
    F. A. Evangelista, J. M. Turney, T. D. Crawford, C. D. Sherrill,
    J. Chem. Phys. 152(18) 184108 (2020). https://doi.org/10.1063/5.0006002

                            Additional Code Authors
    E. T. Seidl, C. L. Janssen, E. F. Valeev, M. L. Leininger,
    J. F. Gonthier, R. M. Richard, H. R. McAlexander, M. Saitow, X. Wang,
    P. Verma, and M. H. Lechner

             Previous Authors, Complete List of Code Contributors,
                       and Citations for Specific Modules
    https://github.com/psi4/psi4/blob/master/codemeta.json
    https://github.com/psi4/psi4/graphs/contributors
    http://psicode.org/psi4manual/master/introduction.html#citing-psifour

    -----------------------------------------------------------------------


    Psi4 started on: Monday, 04 October 2021 02:29PM

    Process ID: 10585
    Host:       ds1
    PSIDATADIR: /theoryfs2/ds/csargent/miniconda3/envs/cle/share/psi4
    Memory:     500.0 MiB
    Threads:    6
    
  ==> Input File <==

--------------------------------------------------------------------------
# PSI4 file produced by CrystaLattE

# Generated from:               pyrazole.xyz
# Psithon input for N-mer:      2mer-0+362
# Number of atoms per monomer:  [9, 9]
# Number of replicas:           1
# COM priority:                 1.418575921770e-05
# Minimum COM separations:      21.860 
# Separation priority:          2.224037181157e-05
# Minimum monomer separations:  18.817 
# Cutoff priority:              6.254453834777e-07
# Nuclear repulsion energy:     364.6529448418786

memory 7 GB

molecule Dimer_0_362 {
  N            6.27981210      -4.25303372       0.19313865 
  N            6.06870777      -2.28125697       1.80544317 
  H            3.66871156      -5.64628941      -1.96684001 
  H            0.69034521      -2.37545694      -0.42864236 
  H            3.35917442       0.17650601       3.09265017 
  H            7.35266782      -1.99461311       2.90680702 
  C            3.77952586      -1.21508453       1.76858172 
  C            2.38242998      -2.55505538       0.04607681 
  C            4.01771468      -4.38410490      -0.88761863 
--
  N           -4.94029013      21.49448368     -33.53956902 
  N           -4.82142787      19.45657665     -32.00239530 
  H           -2.26712739      23.89539365     -34.25759937 
  H            0.62750917      21.45285491     -31.50246187 
  H           -2.30891491      17.73980589     -29.59782556 
  H           -6.28383608      18.64659959     -31.61662997 
  C           -2.53859146      19.12640098     -30.97334645 
  C           -1.05559903      21.05607319     -31.86326892 
  C           -2.61690436      22.44124101     -33.45496687 
units = au
no_com
no_reorient
}

set {
  e_convergence 10
  d_convergence 10
  scf_type df
  mp2_type df
  cc_type df
  freeze_core true
}

energy('sapt0/aug-cc-pvdz')

--------------------------------------------------------------------------

  Memory set to   6.519 GiB by Python driver.

Scratch directory: /scratch/csargent/psi4.7158.66302/

Scratch directory: /scratch/csargent/psi4.7158.66302/

  //>>>>>>>>>>>>>>>>>>>>>>>>>>>>>>>>>>>//
  //              Dimer HF             //
  //<<<<<<<<<<<<<<<<<<<<<<<<<<<<<<<<<<<//


*** tstart() called on ds1
*** at Mon Oct  4 14:29:47 2021

   => Loading Basis Set <=

    Name: AUG-CC-PVDZ
    Role: ORBITAL
    Keyword: BASIS
    atoms 1-2, 10-11 entry N          line   218 file /theoryfs2/ds/csargent/miniconda3/envs/cle/share/psi4/basis/aug-cc-pvdz.gbs 
    atoms 3-6, 12-15 entry H          line    40 file /theoryfs2/ds/csargent/miniconda3/envs/cle/share/psi4/basis/aug-cc-pvdz.gbs 
    atoms 7-9, 16-18 entry C          line   182 file /theoryfs2/ds/csargent/miniconda3/envs/cle/share/psi4/basis/aug-cc-pvdz.gbs 


         ---------------------------------------------------------
                                   SCF
               by Justin Turney, Rob Parrish, Andy Simmonett
                          and Daniel G. A. Smith
                              RHF Reference
                        6 Threads,   6675 MiB Core
         ---------------------------------------------------------

  ==> Geometry <==

    Molecular point group: c1
    Full point group: C1

    Geometry (in Bohr), charge = 0, multiplicity = 1:

       Center              X                  Y                   Z               Mass       
    ------------   -----------------  -----------------  -----------------  -----------------
         N            6.279812100000    -4.253033720000     0.193138650000    14.003074004430
         N            6.068707770000    -2.281256970000     1.805443170000    14.003074004430
         H            3.668711560000    -5.646289410000    -1.966840010000     1.007825032230
         H            0.690345210000    -2.375456940000    -0.428642360000     1.007825032230
         H            3.359174420000     0.176506010000     3.092650170000     1.007825032230
         H            7.352667820000    -1.994613110000     2.906807020000     1.007825032230
         C            3.779525860000    -1.215084530000     1.768581720000    12.000000000000
         C            2.382429980000    -2.555055380000     0.046076810000    12.000000000000
         C            4.017714680000    -4.384104900000    -0.887618630000    12.000000000000
         N           -4.940290130000    21.494483680000   -33.539569020000    14.003074004430
         N           -4.821427870000    19.456576650000   -32.002395300000    14.003074004430
         H           -2.267127390000    23.895393650000   -34.257599370000     1.007825032230
         H            0.627509170000    21.452854910000   -31.502461870000     1.007825032230
         H           -2.308914910000    17.739805890000   -29.597825560000     1.007825032230
         H           -6.283836080000    18.646599590000   -31.616629970000     1.007825032230
         C           -2.538591460000    19.126400980000   -30.973346450000    12.000000000000
         C           -1.055599030000    21.056073190000   -31.863268920000    12.000000000000
         C           -2.616904360000    22.441241010000   -33.454966870000    12.000000000000

  Running in c1 symmetry.

  Rotational constants: A =      0.02821  B =      0.00059  C =      0.00058 [cm^-1]
  Rotational constants: A =    845.85064  B =     17.70508  C =     17.42960 [MHz]
  Nuclear repulsion =  364.652944765973643

  Charge       = 0
  Multiplicity = 1
  Electrons    = 72
  Nalpha       = 36
  Nbeta        = 36

  ==> Algorithm <==

  SCF Algorithm Type is DF.
  DIIS enabled.
  MOM disabled.
  Fractional occupation disabled.
  Guess Type is SAD.
  Energy threshold   = 1.00e-10
  Density threshold  = 1.00e-10
  Integral threshold = 1.00e-12

  ==> Primary Basis <==

  Basis Set: AUG-CC-PVDZ
    Blend: AUG-CC-PVDZ
    Number of shells: 130
    Number of basis functions: 302
    Number of Cartesian functions: 322
    Spherical Harmonics?: true
    Max angular momentum: 2

   => Loading Basis Set <=

    Name: (AUG-CC-PVDZ AUX)
    Role: JKFIT
    Keyword: DF_BASIS_SCF
    atoms 1-2, 10-11 entry N          line   212 file /theoryfs2/ds/csargent/miniconda3/envs/cle/share/psi4/basis/aug-cc-pvdz-jkfit.gbs 
    atoms 3-6, 12-15 entry H          line    70 file /theoryfs2/ds/csargent/miniconda3/envs/cle/share/psi4/basis/aug-cc-pvdz-jkfit.gbs 
    atoms 7-9, 16-18 entry C          line   154 file /theoryfs2/ds/csargent/miniconda3/envs/cle/share/psi4/basis/aug-cc-pvdz-jkfit.gbs 

  ==> Integral Setup <==

  ==> DiskDFJK: Density-Fitted J/K Matrices <==

    J tasked:                  Yes
    K tasked:                  Yes
    wK tasked:                  No
    OpenMP threads:              6
    Integrals threads:           6
    Memory [MiB]:             5006
    Algorithm:                Core
    Integral Cache:           SAVE
    Schwarz Cutoff:          1E-12
    Fitting Condition:       1E-10

   => Auxiliary Basis Set <=

  Basis Set: (AUG-CC-PVDZ AUX)
    Blend: AUG-CC-PVDZ-JKFIT
    Number of shells: 376
    Number of basis functions: 1116
    Number of Cartesian functions: 1290
    Spherical Harmonics?: true
    Max angular momentum: 3

  Minimum eigenvalue in the overlap matrix is 3.0324469162E-05.
  Reciprocal condition number of the overlap matrix is 2.4867199268E-06.
    Using symmetric orthogonalization.

  ==> Pre-Iterations <==

  SCF Guess: Superposition of Atomic Densities via on-the-fly atomic UHF (no occupation information).

   -------------------------
    Irrep   Nso     Nmo    
   -------------------------
     A        302     302 
   -------------------------
    Total     302     302
   -------------------------

  ==> Iterations <==

                           Total Energy        Delta E     RMS |[F,P]|

   @DF-RHF iter SAD:  -449.44445655365365   -4.49444e+02   0.00000e+00 
   @DF-RHF iter   1:  -449.27108629710256    1.73370e-01   2.12801e-03 DIIS
   @DF-RHF iter   2:  -449.47980912913101   -2.08723e-01   9.73471e-04 DIIS
   @DF-RHF iter   3:  -449.52161253166202   -4.18034e-02   2.10059e-04 DIIS
   @DF-RHF iter   4:  -449.52437951872304   -2.76699e-03   8.54927e-05 DIIS
   @DF-RHF iter   5:  -449.52473534124147   -3.55823e-04   1.69528e-05 DIIS
   @DF-RHF iter   6:  -449.52476922492849   -3.38837e-05   7.02055e-06 DIIS
   @DF-RHF iter   7:  -449.52477712926600   -7.90434e-06   3.08954e-06 DIIS
   @DF-RHF iter   8:  -449.52477864701302   -1.51775e-06   1.43750e-06 DIIS
   @DF-RHF iter   9:  -449.52477898173373   -3.34721e-07   4.00214e-07 DIIS
   @DF-RHF iter  10:  -449.52477899933274   -1.75990e-08   1.20984e-07 DIIS
   @DF-RHF iter  11:  -449.52477900071159   -1.37885e-09   2.82457e-08 DIIS
   @DF-RHF iter  12:  -449.52477900080339   -9.18021e-11   8.21748e-09 DIIS
   @DF-RHF iter  13:  -449.52477900081232   -8.92442e-12   4.00875e-09 DIIS
   @DF-RHF iter  14:  -449.52477900081431   -1.98952e-12   1.38396e-09 DIIS
   @DF-RHF iter  15:  -449.52477900081476   -4.54747e-13   5.88866e-10 DIIS
   @DF-RHF iter  16:  -449.52477900081442    3.41061e-13   1.78814e-10 DIIS
   @DF-RHF iter  17:  -449.52477900081453   -1.13687e-13   6.42100e-11 DIIS
  Energy and wave function converged.


  ==> Post-Iterations <==

    Orbital Energies [Eh]
    ---------------------

    Doubly Occupied:                                                      

       1A    -15.636780     2A    -15.636177     3A    -15.592875  
       4A    -15.592237     5A    -11.280457     6A    -11.279842  
       7A    -11.238349     8A    -11.237705     9A    -11.210464  
      10A    -11.209822    11A     -1.387480    12A     -1.386946  
      13A     -1.122461    14A     -1.121839    15A     -1.067465  
      16A     -1.066868    17A     -0.873330    18A     -0.872704  
      19A     -0.837627    20A     -0.836982    21A     -0.757855  
      22A     -0.757210    23A     -0.646310    24A     -0.645689  
      25A     -0.621402    26A     -0.620770    27A     -0.609699  
      28A     -0.609121    29A     -0.584485    30A     -0.583845  
      31A     -0.461961    32A     -0.461361    33A     -0.371285  
      34A     -0.370660    35A     -0.346613    36A     -0.345996  

    Virtual:                                                              

      37A      0.030246    38A      0.030845    39A      0.041750  
      40A      0.042433    41A      0.048628    42A      0.049217  
      43A      0.062968    44A      0.063584    45A      0.100451  
      46A      0.101070    47A      0.103469    48A      0.104087  
      49A      0.116585    50A      0.117234    51A      0.125693  
      52A      0.126334    53A      0.132524    54A      0.133137  
      55A      0.137783    56A      0.138473    57A      0.140914  
      58A      0.141562    59A      0.156293    60A      0.156966  
      61A      0.163998    62A      0.164666    63A      0.170516  
      64A      0.171136    65A      0.177847    66A      0.178462  
      67A      0.195519    68A      0.196097    69A      0.204252  
      70A      0.204854    71A      0.205620    72A      0.206211  
      73A      0.239668    74A      0.240296    75A      0.243064  
      76A      0.243686    77A      0.244408    78A      0.245015  
      79A      0.270570    80A      0.271185    81A      0.278531  
      82A      0.279149    83A      0.300455    84A      0.301066  
      85A      0.324582    86A      0.325203    87A      0.351799  
      88A      0.352417    89A      0.354783    90A      0.355421  
      91A      0.374345    92A      0.374970    93A      0.395505  
      94A      0.396135    95A      0.402180    96A      0.402806  
      97A      0.414403    98A      0.415074    99A      0.431580  
     100A      0.432185   101A      0.442829   102A      0.443425  
     103A      0.452834   104A      0.453470   105A      0.459255  
     106A      0.459873   107A      0.478101   108A      0.478711  
     109A      0.497983   110A      0.498597   111A      0.508128  
     112A      0.508748   113A      0.521354   114A      0.522020  
     115A      0.540987   116A      0.541628   117A      0.573878  
     118A      0.574484   119A      0.585756   120A      0.586380  
     121A      0.589971   122A      0.590609   123A      0.601845  
     124A      0.602497   125A      0.620379   126A      0.621036  
     127A      0.645540   128A      0.646172   129A      0.654719  
     130A      0.655372   131A      0.675593   132A      0.676226  
     133A      0.697473   134A      0.698099   135A      0.699828  
     136A      0.700442   137A      0.721105   138A      0.721708  
     139A      0.724551   140A      0.725184   141A      0.747147  
     142A      0.747774   143A      0.758023   144A      0.758703  
     145A      0.772748   146A      0.773356   147A      0.780922  
     148A      0.781531   149A      0.827944   150A      0.828564  
     151A      0.837672   152A      0.838296   153A      0.847827  
     154A      0.848445   155A      0.880817   156A      0.881460  
     157A      0.888201   158A      0.888824   159A      0.906383  
     160A      0.907007   161A      0.924257   162A      0.924858  
     163A      0.942017   164A      0.942657   165A      0.977653  
     166A      0.978259   167A      0.984282   168A      0.984912  
     169A      1.010591   170A      1.011220   171A      1.046056  
     172A      1.046676   173A      1.065934   174A      1.066566  
     175A      1.100298   176A      1.100910   177A      1.127492  
     178A      1.128157   179A      1.133637   180A      1.134209  
     181A      1.149668   182A      1.150299   183A      1.174600  
     184A      1.175224   185A      1.219990   186A      1.220592  
     187A      1.268991   188A      1.269632   189A      1.302783  
     190A      1.303445   191A      1.310842   192A      1.311484  
     193A      1.365246   194A      1.365856   195A      1.400472  
     196A      1.401100   197A      1.474135   198A      1.474760  
     199A      1.511468   200A      1.512076   201A      1.525561  
     202A      1.526196   203A      1.560420   204A      1.561034  
     205A      1.590314   206A      1.590952   207A      1.608099  
     208A      1.608738   209A      1.636865   210A      1.637495  
     211A      1.668899   212A      1.669555   213A      1.703074  
     214A      1.703694   215A      1.723387   216A      1.724014  
     217A      1.748649   218A      1.749305   219A      1.763807  
     220A      1.764426   221A      1.804484   222A      1.805082  
     223A      1.875070   224A      1.875650   225A      1.931827  
     226A      1.932463   227A      1.942985   228A      1.943624  
     229A      1.987497   230A      1.988196   231A      2.020882  
     232A      2.021510   233A      2.057046   234A      2.057720  
     235A      2.088277   236A      2.088870   237A      2.144125  
     238A      2.144765   239A      2.189438   240A      2.190060  
     241A      2.200258   242A      2.200887   243A      2.229897  
     244A      2.230511   245A      2.275255   246A      2.275890  
     247A      2.307079   248A      2.307694   249A      2.360150  
     250A      2.360703   251A      2.388570   252A      2.389178  
     253A      2.393274   254A      2.393813   255A      2.434690  
     256A      2.435253   257A      2.464416   258A      2.464996  
     259A      2.531234   260A      2.531842   261A      2.569669  
     262A      2.570251   263A      2.584163   264A      2.584876  
     265A      2.642402   266A      2.643017   267A      2.732469  
     268A      2.733073   269A      2.826275   270A      2.826863  
     271A      2.834188   272A      2.834763   273A      2.901030  
     274A      2.901598   275A      2.918042   276A      2.918619  
     277A      2.998593   278A      2.999253   279A      3.054765  
     280A      3.055368   281A      3.091800   282A      3.092494  
     283A      3.122168   284A      3.122761   285A      3.188364  
     286A      3.189066   287A      3.221442   288A      3.222088  
     289A      3.297305   290A      3.297967   291A      3.379668  
     292A      3.380281   293A      3.520168   294A      3.520819  
     295A      3.685997   296A      3.686353   297A      3.888771  
     298A      3.889304   299A      4.208869   300A      4.209366  
     301A      4.462666   302A      4.463092  

    Final Occupation by Irrep:
              A 
    DOCC [    36 ]

  @DF-RHF Final Energy:  -449.52477900081453

   => Energetics <=

    Nuclear Repulsion Energy =            364.6529447659736434
    One-Electron Energy =               -1329.7901053795244479
    Two-Electron Energy =                 515.6123816127362716
    Total Energy =                       -449.5247790008145330

Computation Completed


Properties will be evaluated at   0.000000,   0.000000,   0.000000 [a0]

Properties computed using the SCF density matrix

  Nuclear Dipole Moment: [e a0]
     X:    46.7576      Y:   639.6290      Z: -1140.3615

  Electronic Dipole Moment: [e a0]
     X:   -46.8686      Y:  -639.5622      Z:  1141.6450

  Dipole Moment: [e a0]
     X:    -0.1110      Y:     0.0669      Z:     1.2836     Total:     1.2901

  Dipole Moment: [D]
     X:    -0.2822      Y:     0.1699      Z:     3.2625     Total:     3.2791


*** tstop() called on ds1 at Mon Oct  4 14:29:52 2021
Module time:
	user time   =      22.20 seconds =       0.37 minutes
	system time =       0.59 seconds =       0.01 minutes
	total time  =          5 seconds =       0.08 minutes
Total time:
	user time   =      22.20 seconds =       0.37 minutes
	system time =       0.59 seconds =       0.01 minutes
	total time  =          5 seconds =       0.08 minutes

  //>>>>>>>>>>>>>>>>>>>>>>>>>>>>>>>>>>>//
  //            Monomer A HF           //
  //<<<<<<<<<<<<<<<<<<<<<<<<<<<<<<<<<<<//


*** tstart() called on ds1
*** at Mon Oct  4 14:29:52 2021

   => Loading Basis Set <=

    Name: AUG-CC-PVDZ
    Role: ORBITAL
    Keyword: BASIS
    atoms 1-2, 10-11 entry N          line   218 file /theoryfs2/ds/csargent/miniconda3/envs/cle/share/psi4/basis/aug-cc-pvdz.gbs 
    atoms 3-6, 12-15 entry H          line    40 file /theoryfs2/ds/csargent/miniconda3/envs/cle/share/psi4/basis/aug-cc-pvdz.gbs 
    atoms 7-9, 16-18 entry C          line   182 file /theoryfs2/ds/csargent/miniconda3/envs/cle/share/psi4/basis/aug-cc-pvdz.gbs 


         ---------------------------------------------------------
                                   SCF
               by Justin Turney, Rob Parrish, Andy Simmonett
                          and Daniel G. A. Smith
                              RHF Reference
                        6 Threads,   6675 MiB Core
         ---------------------------------------------------------

  ==> Geometry <==

    Molecular point group: c1
    Full point group: C1

    Geometry (in Bohr), charge = 0, multiplicity = 1:

       Center              X                  Y                   Z               Mass       
    ------------   -----------------  -----------------  -----------------  -----------------
         N            6.279812100000    -4.253033720000     0.193138650000    14.003074004430
         N            6.068707770000    -2.281256970000     1.805443170000    14.003074004430
         H            3.668711560000    -5.646289410000    -1.966840010000     1.007825032230
         H            0.690345210000    -2.375456940000    -0.428642360000     1.007825032230
         H            3.359174420000     0.176506010000     3.092650170000     1.007825032230
         H            7.352667820000    -1.994613110000     2.906807020000     1.007825032230
         C            3.779525860000    -1.215084530000     1.768581720000    12.000000000000
         C            2.382429980000    -2.555055380000     0.046076810000    12.000000000000
         C            4.017714680000    -4.384104900000    -0.887618630000    12.000000000000
      Gh(N)          -4.940290130000    21.494483680000   -33.539569020000    14.003074004430
      Gh(N)          -4.821427870000    19.456576650000   -32.002395300000    14.003074004430
      Gh(H)          -2.267127390000    23.895393650000   -34.257599370000     1.007825032230
      Gh(H)           0.627509170000    21.452854910000   -31.502461870000     1.007825032230
      Gh(H)          -2.308914910000    17.739805890000   -29.597825560000     1.007825032230
      Gh(H)          -6.283836080000    18.646599590000   -31.616629970000     1.007825032230
      Gh(C)          -2.538591460000    19.126400980000   -30.973346450000    12.000000000000
      Gh(C)          -1.055599030000    21.056073190000   -31.863268920000    12.000000000000
      Gh(C)          -2.616904360000    22.441241010000   -33.454966870000    12.000000000000

  Running in c1 symmetry.

  Rotational constants: A =      0.02821  B =      0.00059  C =      0.00058 [cm^-1]
  Rotational constants: A =    845.85064  B =     17.70508  C =     17.42960 [MHz]
  Nuclear repulsion =  166.624056450327203

  Charge       = 0
  Multiplicity = 1
  Electrons    = 36
  Nalpha       = 18
  Nbeta        = 18

  ==> Algorithm <==

  SCF Algorithm Type is DF.
  DIIS enabled.
  MOM disabled.
  Fractional occupation disabled.
  Guess Type is SAD.
  Energy threshold   = 1.00e-10
  Density threshold  = 1.00e-10
  Integral threshold = 1.00e-12

  ==> Primary Basis <==

  Basis Set: AUG-CC-PVDZ
    Blend: AUG-CC-PVDZ
    Number of shells: 130
    Number of basis functions: 302
    Number of Cartesian functions: 322
    Spherical Harmonics?: true
    Max angular momentum: 2

   => Loading Basis Set <=

    Name: (AUG-CC-PVDZ AUX)
    Role: JKFIT
    Keyword: DF_BASIS_SCF
    atoms 1-2, 10-11 entry N          line   212 file /theoryfs2/ds/csargent/miniconda3/envs/cle/share/psi4/basis/aug-cc-pvdz-jkfit.gbs 
    atoms 3-6, 12-15 entry H          line    70 file /theoryfs2/ds/csargent/miniconda3/envs/cle/share/psi4/basis/aug-cc-pvdz-jkfit.gbs 
    atoms 7-9, 16-18 entry C          line   154 file /theoryfs2/ds/csargent/miniconda3/envs/cle/share/psi4/basis/aug-cc-pvdz-jkfit.gbs 

  ==> Integral Setup <==

  ==> DiskDFJK: Density-Fitted J/K Matrices <==

    J tasked:                  Yes
    K tasked:                  Yes
    wK tasked:                  No
    OpenMP threads:              6
    Integrals threads:           6
    Memory [MiB]:             5006
    Algorithm:                Core
    Integral Cache:           LOAD
    Schwarz Cutoff:          1E-12
    Fitting Condition:       1E-10

   => Auxiliary Basis Set <=

  Basis Set: (AUG-CC-PVDZ AUX)
    Blend: AUG-CC-PVDZ-JKFIT
    Number of shells: 376
    Number of basis functions: 1116
    Number of Cartesian functions: 1290
    Spherical Harmonics?: true
    Max angular momentum: 3

  Minimum eigenvalue in the overlap matrix is 3.0324469162E-05.
  Reciprocal condition number of the overlap matrix is 2.4867199268E-06.
    Using symmetric orthogonalization.

  ==> Pre-Iterations <==

  SCF Guess: Superposition of Atomic Densities via on-the-fly atomic UHF (no occupation information).

   -------------------------
    Irrep   Nso     Nmo    
   -------------------------
     A        302     302 
   -------------------------
    Total     302     302
   -------------------------

  ==> Iterations <==

                           Total Energy        Delta E     RMS |[F,P]|

   @DF-RHF iter SAD:  -224.72194801203975   -2.24722e+02   0.00000e+00 
   @DF-RHF iter   1:  -224.63549169970139    8.64563e-02   1.50472e-03 DIIS
   @DF-RHF iter   2:  -224.73984613240714   -1.04354e-01   6.88462e-04 DIIS
   @DF-RHF iter   3:  -224.76075487133227   -2.09087e-02   1.48626e-04 DIIS
   @DF-RHF iter   4:  -224.76213931510543   -1.38444e-03   6.05310e-05 DIIS
   @DF-RHF iter   5:  -224.76231766986368   -1.78355e-04   1.19893e-05 DIIS
   @DF-RHF iter   6:  -224.76233462733711   -1.69575e-05   4.96772e-06 DIIS
   @DF-RHF iter   7:  -224.76233858337505   -3.95604e-06   2.18806e-06 DIIS
   @DF-RHF iter   8:  -224.76233934411744   -7.60742e-07   1.01700e-06 DIIS
   @DF-RHF iter   9:  -224.76233951175928   -1.67642e-07   2.83302e-07 DIIS
   @DF-RHF iter  10:  -224.76233952057979   -8.82051e-09   8.55547e-08 DIIS
   @DF-RHF iter  11:  -224.76233952126918   -6.89397e-10   1.99714e-08 DIIS
   @DF-RHF iter  12:  -224.76233952131588   -4.66969e-11   5.81092e-09 DIIS
   @DF-RHF iter  13:  -224.76233952131994   -4.06430e-12   2.83097e-09 DIIS
   @DF-RHF iter  14:  -224.76233952132085   -9.09495e-13   9.75191e-10 DIIS
   @DF-RHF iter  15:  -224.76233952132085    0.00000e+00   4.15548e-10 DIIS
   @DF-RHF iter  16:  -224.76233952132134   -4.83169e-13   1.25997e-10 DIIS
   @DF-RHF iter  17:  -224.76233952132097    3.69482e-13   4.47776e-11 DIIS
  Energy and wave function converged.


  ==> Post-Iterations <==

    Orbital Energies [Eh]
    ---------------------

    Doubly Occupied:                                                      

       1A    -15.636223     2A    -15.592313     3A    -11.279894  
       4A    -11.237784     5A    -11.209891     6A     -1.386922  
       7A     -1.121901     8A     -1.066898     9A     -0.872768  
      10A     -0.837061    11A     -0.757292    12A     -0.645746  
      13A     -0.620834    14A     -0.609140    15A     -0.583920  
      16A     -0.461404    17A     -0.370721    18A     -0.346048  

    Virtual:                                                              

      19A      0.022768    20A      0.030764    21A      0.040112  
      22A      0.042368    23A      0.044238    24A      0.049159  
      25A      0.063520    26A      0.065972    27A      0.084064  
      28A      0.090826    29A      0.099053    30A      0.100998  
      31A      0.104029    32A      0.117179    33A      0.118445  
      34A      0.125924    35A      0.126270    36A      0.128364  
      37A      0.133069    38A      0.133467    39A      0.134221  
      40A      0.138403    41A      0.141490    42A      0.156889  
      43A      0.158646    44A      0.164592    45A      0.166057  
      46A      0.171075    47A      0.178408    48A      0.179291  
      49A      0.195586    50A      0.196042    51A      0.201584  
      52A      0.204793    53A      0.206162    54A      0.223028  
      55A      0.225242    56A      0.228347    57A      0.235660  
      58A      0.240236    59A      0.243626    60A      0.244965  
      61A      0.264161    62A      0.271113    63A      0.271127  
      64A      0.279080    65A      0.301010    66A      0.322020  
      67A      0.325148    68A      0.340197    69A      0.352358  
      70A      0.355357    71A      0.366653    72A      0.373006  
      73A      0.374907    74A      0.383825    75A      0.396061  
      76A      0.402741    77A      0.414998    78A      0.427579  
      79A      0.432132    80A      0.432174    81A      0.441293  
      82A      0.442448    83A      0.443385    84A      0.453393  
      85A      0.456110    86A      0.457531    87A      0.459816  
      88A      0.461982    89A      0.478655    90A      0.498543  
      91A      0.508690    92A      0.509841    93A      0.519527  
      94A      0.521917    95A      0.533234    96A      0.538155  
      97A      0.541560    98A      0.559431    99A      0.568934  
     100A      0.571960   101A      0.574432   102A      0.586318  
     103A      0.590538   104A      0.595271   105A      0.602413  
     106A      0.613488   107A      0.620953   108A      0.621365  
     109A      0.633645   110A      0.646110   111A      0.655295  
     112A      0.676161   113A      0.690945   114A      0.698041  
     115A      0.700391   116A      0.707919   117A      0.719567  
     118A      0.721667   119A      0.725115   120A      0.735788  
     121A      0.745483   122A      0.747709   123A      0.758592  
     124A      0.773318   125A      0.781481   126A      0.789811  
     127A      0.798239   128A      0.814568   129A      0.821050  
     130A      0.828504   131A      0.838230   132A      0.848394  
     133A      0.852078   134A      0.855232   135A      0.871133  
     136A      0.881208   137A      0.881395   138A      0.888767  
     139A      0.895804   140A      0.906950   141A      0.916290  
     142A      0.924815   143A      0.942582   144A      0.952235  
     145A      0.978222   146A      0.984850   147A      0.997325  
     148A      1.011149   149A      1.024325   150A      1.030383  
     151A      1.046606   152A      1.051800   153A      1.066503  
     154A      1.071289   155A      1.081155   156A      1.100852  
     157A      1.108367   158A      1.128058   159A      1.134196  
     160A      1.150235   161A      1.158978   162A      1.166484  
     163A      1.175168   164A      1.185170   165A      1.220548  
     166A      1.221928   167A      1.237254   168A      1.268174  
     169A      1.269556   170A      1.293943   171A      1.303342  
     172A      1.311399   173A      1.315361   174A      1.340887  
     175A      1.365807   176A      1.382052   177A      1.401043  
     178A      1.435218   179A      1.444961   180A      1.474691  
     181A      1.493428   182A      1.507279   183A      1.512027  
     184A      1.526129   185A      1.560989   186A      1.590882  
     187A      1.608669   188A      1.637437   189A      1.669472  
     190A      1.676941   191A      1.689108   192A      1.703634  
     193A      1.723950   194A      1.749215   195A      1.764373  
     196A      1.805048   197A      1.875632   198A      1.932390  
     199A      1.943558   200A      1.988067   201A      2.021445  
     202A      2.041302   203A      2.057611   204A      2.088839  
     205A      2.109315   206A      2.135021   207A      2.144687  
     208A      2.168349   209A      2.190005   210A      2.200827  
     211A      2.216851   212A      2.230457   213A      2.234094  
     214A      2.262100   215A      2.275825   216A      2.277950  
     217A      2.289494   218A      2.307640   219A      2.335877  
     220A      2.360716   221A      2.380821   222A      2.389130  
     223A      2.393822   224A      2.394774   225A      2.435246  
     226A      2.444104   227A      2.464967   228A      2.478527  
     229A      2.500175   230A      2.513895   231A      2.531798  
     232A      2.549061   233A      2.570232   234A      2.584716  
     235A      2.631564   236A      2.642961   237A      2.667769  
     238A      2.703268   239A      2.719123   240A      2.733029  
     241A      2.826838   242A      2.828179   243A      2.834751  
     244A      2.870060   245A      2.890264   246A      2.901587  
     247A      2.918598   248A      2.945327   249A      2.999157  
     250A      3.028219   251A      3.055324   252A      3.089993  
     253A      3.092358   254A      3.122730   255A      3.140280  
     256A      3.182120   257A      3.188930   258A      3.222008  
     259A      3.254399   260A      3.289362   261A      3.297865  
     262A      3.355908   263A      3.380235   264A      3.395871  
     265A      3.423654   266A      3.448451   267A      3.487453  
     268A      3.497796   269A      3.520727   270A      3.633860  
     271A      3.667208   272A      3.686563   273A      3.735874  
     274A      3.770375   275A      3.851393   276A      3.889327  
     277A      3.964792   278A      4.035888   279A      4.095018  
     280A      4.209428   281A      4.244328   282A      4.448502  
     283A      4.463235   284A      4.658727   285A      4.708415  
     286A      4.750197   287A      4.811091   288A      4.995107  
     289A      5.076971   290A      5.241502   291A      5.531731  
     292A      5.669288   293A      5.826915   294A      6.107285  
     295A      6.318443   296A      6.707830   297A      6.967757  
     298A     18.111428   299A     18.648315   300A     19.373951  
     301A     25.245693   302A     25.705589  

    Final Occupation by Irrep:
              A 
    DOCC [    18 ]

  @DF-RHF Final Energy:  -224.76233952132097

   => Energetics <=

    Nuclear Repulsion Energy =            166.6240564503272026
    One-Electron Energy =                -633.4992733905039586
    Two-Electron Energy =                 242.1128774188557884
    Total Energy =                       -224.7623395213209676

Computation Completed


Properties will be evaluated at   0.000000,   0.000000,   0.000000 [a0]

Properties computed using the SCF density matrix

  Nuclear Dipole Moment: [e a0]
     X:   162.5886      Y:  -104.5054      Z:    23.1563

  Electronic Dipole Moment: [e a0]
     X:  -162.9913      Y:   105.1370      Z:   -22.5767

  Dipole Moment: [e a0]
     X:    -0.4027      Y:     0.6317      Z:     0.5796     Total:     0.9472

  Dipole Moment: [D]
     X:    -1.0235      Y:     1.6055      Z:     1.4733     Total:     2.4075


*** tstop() called on ds1 at Mon Oct  4 14:29:55 2021
Module time:
	user time   =      15.92 seconds =       0.27 minutes
	system time =       0.33 seconds =       0.01 minutes
	total time  =          3 seconds =       0.05 minutes
Total time:
	user time   =      38.26 seconds =       0.64 minutes
	system time =       0.92 seconds =       0.02 minutes
	total time  =          8 seconds =       0.13 minutes

  //>>>>>>>>>>>>>>>>>>>>>>>>>>>>>>>>>>>//
  //            Monomer B HF           //
  //<<<<<<<<<<<<<<<<<<<<<<<<<<<<<<<<<<<//


*** tstart() called on ds1
*** at Mon Oct  4 14:29:55 2021

   => Loading Basis Set <=

    Name: AUG-CC-PVDZ
    Role: ORBITAL
    Keyword: BASIS
    atoms 1-2, 10-11 entry N          line   218 file /theoryfs2/ds/csargent/miniconda3/envs/cle/share/psi4/basis/aug-cc-pvdz.gbs 
    atoms 3-6, 12-15 entry H          line    40 file /theoryfs2/ds/csargent/miniconda3/envs/cle/share/psi4/basis/aug-cc-pvdz.gbs 
    atoms 7-9, 16-18 entry C          line   182 file /theoryfs2/ds/csargent/miniconda3/envs/cle/share/psi4/basis/aug-cc-pvdz.gbs 


         ---------------------------------------------------------
                                   SCF
               by Justin Turney, Rob Parrish, Andy Simmonett
                          and Daniel G. A. Smith
                              RHF Reference
                        6 Threads,   6675 MiB Core
         ---------------------------------------------------------

  ==> Geometry <==

    Molecular point group: c1
    Full point group: C1

    Geometry (in Bohr), charge = 0, multiplicity = 1:

       Center              X                  Y                   Z               Mass       
    ------------   -----------------  -----------------  -----------------  -----------------
      Gh(N)           6.279812100000    -4.253033720000     0.193138650000    14.003074004430
      Gh(N)           6.068707770000    -2.281256970000     1.805443170000    14.003074004430
      Gh(H)           3.668711560000    -5.646289410000    -1.966840010000     1.007825032230
      Gh(H)           0.690345210000    -2.375456940000    -0.428642360000     1.007825032230
      Gh(H)           3.359174420000     0.176506010000     3.092650170000     1.007825032230
      Gh(H)           7.352667820000    -1.994613110000     2.906807020000     1.007825032230
      Gh(C)           3.779525860000    -1.215084530000     1.768581720000    12.000000000000
      Gh(C)           2.382429980000    -2.555055380000     0.046076810000    12.000000000000
      Gh(C)           4.017714680000    -4.384104900000    -0.887618630000    12.000000000000
         N           -4.940290130000    21.494483680000   -33.539569020000    14.003074004430
         N           -4.821427870000    19.456576650000   -32.002395300000    14.003074004430
         H           -2.267127390000    23.895393650000   -34.257599370000     1.007825032230
         H            0.627509170000    21.452854910000   -31.502461870000     1.007825032230
         H           -2.308914910000    17.739805890000   -29.597825560000     1.007825032230
         H           -6.283836080000    18.646599590000   -31.616629970000     1.007825032230
         C           -2.538591460000    19.126400980000   -30.973346450000    12.000000000000
         C           -1.055599030000    21.056073190000   -31.863268920000    12.000000000000
         C           -2.616904360000    22.441241010000   -33.454966870000    12.000000000000

  Running in c1 symmetry.

  Rotational constants: A =      0.02821  B =      0.00059  C =      0.00058 [cm^-1]
  Rotational constants: A =    845.85064  B =     17.70508  C =     17.42960 [MHz]
  Nuclear repulsion =  166.628602739620618

  Charge       = 0
  Multiplicity = 1
  Electrons    = 36
  Nalpha       = 18
  Nbeta        = 18

  ==> Algorithm <==

  SCF Algorithm Type is DF.
  DIIS enabled.
  MOM disabled.
  Fractional occupation disabled.
  Guess Type is SAD.
  Energy threshold   = 1.00e-10
  Density threshold  = 1.00e-10
  Integral threshold = 1.00e-12

  ==> Primary Basis <==

  Basis Set: AUG-CC-PVDZ
    Blend: AUG-CC-PVDZ
    Number of shells: 130
    Number of basis functions: 302
    Number of Cartesian functions: 322
    Spherical Harmonics?: true
    Max angular momentum: 2

   => Loading Basis Set <=

    Name: (AUG-CC-PVDZ AUX)
    Role: JKFIT
    Keyword: DF_BASIS_SCF
    atoms 1-2, 10-11 entry N          line   212 file /theoryfs2/ds/csargent/miniconda3/envs/cle/share/psi4/basis/aug-cc-pvdz-jkfit.gbs 
    atoms 3-6, 12-15 entry H          line    70 file /theoryfs2/ds/csargent/miniconda3/envs/cle/share/psi4/basis/aug-cc-pvdz-jkfit.gbs 
    atoms 7-9, 16-18 entry C          line   154 file /theoryfs2/ds/csargent/miniconda3/envs/cle/share/psi4/basis/aug-cc-pvdz-jkfit.gbs 

  ==> Integral Setup <==

  ==> DiskDFJK: Density-Fitted J/K Matrices <==

    J tasked:                  Yes
    K tasked:                  Yes
    wK tasked:                  No
    OpenMP threads:              6
    Integrals threads:           6
    Memory [MiB]:             5006
    Algorithm:                Core
    Integral Cache:           LOAD
    Schwarz Cutoff:          1E-12
    Fitting Condition:       1E-10

   => Auxiliary Basis Set <=

  Basis Set: (AUG-CC-PVDZ AUX)
    Blend: AUG-CC-PVDZ-JKFIT
    Number of shells: 376
    Number of basis functions: 1116
    Number of Cartesian functions: 1290
    Spherical Harmonics?: true
    Max angular momentum: 3

  Minimum eigenvalue in the overlap matrix is 3.0324469162E-05.
  Reciprocal condition number of the overlap matrix is 2.4867199268E-06.
    Using symmetric orthogonalization.

  ==> Pre-Iterations <==

  SCF Guess: Superposition of Atomic Densities via on-the-fly atomic UHF (no occupation information).

   -------------------------
    Irrep   Nso     Nmo    
   -------------------------
     A        302     302 
   -------------------------
    Total     302     302
   -------------------------

  ==> Iterations <==

                           Total Energy        Delta E     RMS |[F,P]|

   @DF-RHF iter SAD:  -224.72250854062520   -2.24723e+02   0.00000e+00 
   @DF-RHF iter   1:  -224.63556596058643    8.69426e-02   1.50490e-03 DIIS
   @DF-RHF iter   2:  -224.73993304786615   -1.04367e-01   6.88620e-04 DIIS
   @DF-RHF iter   3:  -224.76085080126435   -2.09178e-02   1.48614e-04 DIIS
   @DF-RHF iter   4:  -224.76223499992270   -1.38420e-03   6.05151e-05 DIIS
   @DF-RHF iter   5:  -224.76241324442714   -1.78245e-04   1.19848e-05 DIIS
   @DF-RHF iter   6:  -224.76243017757650   -1.69331e-05   4.96323e-06 DIIS
   @DF-RHF iter   7:  -224.76243412541996   -3.94784e-06   2.18628e-06 DIIS
   @DF-RHF iter   8:  -224.76243488495837   -7.59538e-07   1.01631e-06 DIIS
   @DF-RHF iter   9:  -224.76243505246359   -1.67505e-07   2.83280e-07 DIIS
   @DF-RHF iter  10:  -224.76243506128074   -8.81715e-09   8.55270e-08 DIIS
   @DF-RHF iter  11:  -224.76243506197031   -6.89568e-10   1.99678e-08 DIIS
   @DF-RHF iter  12:  -224.76243506201646   -4.61569e-11   5.80973e-09 DIIS
   @DF-RHF iter  13:  -224.76243506202073   -4.26326e-12   2.83583e-09 DIIS
   @DF-RHF iter  14:  -224.76243506202152   -7.95808e-13   9.79833e-10 DIIS
   @DF-RHF iter  15:  -224.76243506202206   -5.40012e-13   4.16538e-10 DIIS
   @DF-RHF iter  16:  -224.76243506202218   -1.13687e-13   1.25808e-10 DIIS
   @DF-RHF iter  17:  -224.76243506202181    3.69482e-13   4.47600e-11 DIIS
  Energy and wave function converged.


  ==> Post-Iterations <==

    Orbital Energies [Eh]
    ---------------------

    Doubly Occupied:                                                      

       1A    -15.636233     2A    -15.592291     3A    -11.279903  
       4A    -11.237759     5A    -11.209884     6A     -1.387001  
       7A     -1.121894     8A     -1.066928     9A     -0.872759  
      10A     -0.837039    11A     -0.757272    12A     -0.645745  
      13A     -0.620828    14A     -0.609177    15A     -0.583905  
      16A     -0.461413    17A     -0.370715    18A     -0.346055  

    Virtual:                                                              

      19A      0.022144    20A      0.030764    21A      0.039498  
      22A      0.042369    23A      0.043606    24A      0.049158  
      25A      0.063519    26A      0.065359    27A      0.083423  
      28A      0.090233    29A      0.098435    30A      0.101001  
      31A      0.104028    32A      0.117186    33A      0.117777  
      34A      0.125298    35A      0.126272    36A      0.127705  
      37A      0.132805    38A      0.133070    39A      0.133597  
      40A      0.138399    41A      0.141487    42A      0.156889  
      43A      0.157991    44A      0.164594    45A      0.165415  
      46A      0.171081    47A      0.178407    48A      0.178666  
      49A      0.194996    50A      0.196040    51A      0.201010  
      52A      0.204806    53A      0.206166    54A      0.222444  
      55A      0.224592    56A      0.227724    57A      0.235058  
      58A      0.240240    59A      0.243627    60A      0.244965  
      61A      0.263560    62A      0.270506    63A      0.271138  
      64A      0.279081    65A      0.301024    66A      0.321412  
      67A      0.325138    68A      0.339561    69A      0.352354  
      70A      0.355359    71A      0.366020    72A      0.372357  
      73A      0.374909    74A      0.383203    75A      0.396062  
      76A      0.402744    77A      0.415005    78A      0.426969  
      79A      0.431538    80A      0.432131    81A      0.440638  
      82A      0.441791    83A      0.443379    84A      0.453414  
      85A      0.455506    86A      0.456905    87A      0.459816  
      88A      0.461370    89A      0.478656    90A      0.498544  
      91A      0.508693    92A      0.509218    93A      0.518925  
      94A      0.521953    95A      0.532637    96A      0.537527  
      97A      0.541569    98A      0.558808    99A      0.568341  
     100A      0.571313   101A      0.574428   102A      0.586322  
     103A      0.590547   104A      0.594650   105A      0.602431  
     106A      0.612840   107A      0.620750   108A      0.620974  
     109A      0.633013   110A      0.646111   111A      0.655304  
     112A      0.676168   113A      0.690330   114A      0.698039  
     115A      0.700384   116A      0.707302   117A      0.718939  
     118A      0.721648   119A      0.725121   120A      0.735158  
     121A      0.744845   122A      0.747717   123A      0.758643  
     124A      0.773300   125A      0.781476   126A      0.789201  
     127A      0.797614   128A      0.813929   129A      0.820423  
     130A      0.828513   131A      0.838238   132A      0.848382  
     133A      0.851425   134A      0.854596   135A      0.870503  
     136A      0.880568   137A      0.881396   138A      0.888762  
     139A      0.895192   140A      0.906950   141A      0.915656  
     142A      0.924803   143A      0.942599   144A      0.951610  
     145A      0.978204   146A      0.984853   147A      0.996700  
     148A      1.011170   149A      1.023701   150A      1.029784  
     151A      1.046624   152A      1.051190   153A      1.066503  
     154A      1.070647   155A      1.080515   156A      1.100853  
     157A      1.107747   158A      1.128099   159A      1.134152  
     160A      1.150240   161A      1.158365   162A      1.165866  
     163A      1.175167   164A      1.184542   165A      1.220538  
     166A      1.221310   167A      1.236619   168A      1.267580  
     169A      1.269573   170A      1.293334   171A      1.303390  
     172A      1.311431   173A      1.314731   174A      1.340273  
     175A      1.365802   176A      1.381424   177A      1.401039  
     178A      1.434602   179A      1.444327   180A      1.474706  
     181A      1.492830   182A      1.506630   183A      1.512021  
     184A      1.526136   185A      1.560976   186A      1.590889  
     187A      1.608679   188A      1.637435   189A      1.669494  
     190A      1.676328   191A      1.688514   192A      1.703636  
     193A      1.723957   194A      1.749249   195A      1.764367  
     196A      1.805025   197A      1.875589   198A      1.932406  
     199A      1.943562   200A      1.988139   201A      2.021453  
     202A      2.040660   203A      2.057662   204A      2.088810  
     205A      2.108671   206A      2.134432   207A      2.144708  
     208A      2.167693   209A      2.189999   210A      2.200828  
     211A      2.216239   212A      2.230454   213A      2.233447  
     214A      2.261459   215A      2.275832   216A      2.277348  
     217A      2.288861   218A      2.307637   219A      2.335312  
     220A      2.360646   221A      2.380173   222A      2.389121  
     223A      2.393758   224A      2.394140   225A      2.435199  
     226A      2.443479   227A      2.464942   228A      2.477919  
     229A      2.499484   230A      2.513252   231A      2.531785  
     232A      2.548413   233A      2.570195   234A      2.584820  
     235A      2.630947   236A      2.642959   237A      2.667135  
     238A      2.702637   239A      2.718498   240A      2.733013  
     241A      2.826807   242A      2.827517   243A      2.834707  
     244A      2.869430   245A      2.889632   246A      2.901543  
     247A      2.918563   248A      2.944762   249A      2.999195  
     250A      3.027679   251A      3.055311   252A      3.089447  
     253A      3.092440   254A      3.122703   255A      3.139638  
     256A      3.181590   257A      3.189011   258A      3.222030  
     259A      3.253765   260A      3.288821   261A      3.297913  
     262A      3.355395   263A      3.380219   264A      3.395229  
     265A      3.423125   266A      3.447914   267A      3.486782  
     268A      3.497113   269A      3.520764   270A      3.633198  
     271A      3.666574   272A      3.686295   273A      3.735235  
     274A      3.769719   275A      3.850800   276A      3.889250  
     277A      3.964011   278A      4.035155   279A      4.094389  
     280A      4.209312   281A      4.243714   282A      4.448060  
     283A      4.463032   284A      4.658063   285A      4.707680  
     286A      4.749549   287A      4.810414   288A      4.994494  
     289A      5.076441   290A      5.241081   291A      5.530878  
     292A      5.668600   293A      5.826483   294A      6.106337  
     295A      6.317928   296A      6.708006   297A      6.967512  
     298A     18.110793   299A     18.647480   300A     19.373202  
     301A     25.245205   302A     25.704604  

    Final Occupation by Irrep:
              A 
    DOCC [    18 ]

  @DF-RHF Final Energy:  -224.76243506202181

   => Energetics <=

    Nuclear Repulsion Energy =            166.6286027396206180
    One-Electron Energy =                -633.5084732626326058
    Two-Electron Energy =                 242.1174354609901513
    Total Energy =                       -224.7624350620218081

Computation Completed


Properties will be evaluated at   0.000000,   0.000000,   0.000000 [a0]

Properties computed using the SCF density matrix

  Nuclear Dipole Moment: [e a0]
     X:  -115.8310      Y:   744.1344      Z: -1163.5178

  Electronic Dipole Moment: [e a0]
     X:   116.1219      Y:  -744.6984      Z:  1164.2209

  Dipole Moment: [e a0]
     X:     0.2909      Y:    -0.5640      Z:     0.7031     Total:     0.9472

  Dipole Moment: [D]
     X:     0.7394      Y:    -1.4336      Z:     1.7871     Total:     2.4074


*** tstop() called on ds1 at Mon Oct  4 14:29:59 2021
Module time:
	user time   =      15.69 seconds =       0.26 minutes
	system time =       0.32 seconds =       0.01 minutes
	total time  =          4 seconds =       0.07 minutes
Total time:
	user time   =      54.12 seconds =       0.90 minutes
	system time =       1.25 seconds =       0.02 minutes
	total time  =         12 seconds =       0.20 minutes
  Constructing Basis Sets for SAPT...

   => Loading Basis Set <=

    Name: (AUG-CC-PVDZ AUX)
    Role: RIFIT
    Keyword: DF_BASIS_SAPT
    atoms 1-2, 10-11 entry N          line   158 file /theoryfs2/ds/csargent/miniconda3/envs/cle/share/psi4/basis/aug-cc-pvdz-ri.gbs 
    atoms 3-6, 12-15 entry H          line    30 file /theoryfs2/ds/csargent/miniconda3/envs/cle/share/psi4/basis/aug-cc-pvdz-ri.gbs 
    atoms 7-9, 16-18 entry C          line   112 file /theoryfs2/ds/csargent/miniconda3/envs/cle/share/psi4/basis/aug-cc-pvdz-ri.gbs 


  //>>>>>>>>>>>>>>>>>>>>>>>>>>>>>>>>>>>//
  //               SAPT0               //
  //<<<<<<<<<<<<<<<<<<<<<<<<<<<<<<<<<<<//


*** tstart() called on ds1
*** at Mon Oct  4 14:29:59 2021

        SAPT0  
    Ed Hohenstein
     6 June 2009

      Orbital Information
  --------------------------
    NSO        =       302
    NMO        =       302
    NRI        =       904
    NOCC A     =        18
    NOCC B     =        18
    FOCC A     =         5
    FOCC B     =         5
    NVIR A     =       284
    NVIR B     =       284

    Elst10,r            =    -0.000004462500 [Eh]
    Exch10              =     0.000000000000 [Eh]
    Exch10 (S^2)        =     0.000000000000 [Eh]

    Iter     Energy [mEh]          dE [mEh]         Residual      Time [s]
       1      -0.00001508       0.000015078       0.039088389             0
       2      -0.00001376      -0.000001313       0.009962375             0
       3      -0.00001465       0.000000888       0.004892658             0
       4      -0.00001508       0.000000424       0.000856334             0
       5      -0.00001504      -0.000000037       0.000421099             0
       6      -0.00001503      -0.000000012       0.000139831             1
       7      -0.00001503       0.000000002       0.000064855             1
       8      -0.00001503       0.000000001       0.000026377             1
       9      -0.00001503      -0.000000000       0.000008393             1
      10      -0.00001503      -0.000000000       0.000002370             1
      11      -0.00001503       0.000000000       0.000001091             1
      12      -0.00001503       0.000000000       0.000000305             1

    CHF Iterations converged


    Iter     Energy [mEh]          dE [mEh]         Residual      Time [s]
       1      -0.00000324       0.000003241       0.018146328             0
       2      -0.00000297      -0.000000267       0.004692587             1
       3      -0.00000318       0.000000208       0.002386856             1
       4      -0.00000328       0.000000093       0.000529237             1
       5      -0.00000326      -0.000000012       0.000332765             1
       6      -0.00000326      -0.000000004       0.000115454             1
       7      -0.00000326       0.000000002       0.000045188             1
       8      -0.00000326       0.000000000       0.000015416             2
       9      -0.00000326      -0.000000000       0.000003772             2
      10      -0.00000326      -0.000000000       0.000001061             2
      11      -0.00000326       0.000000000       0.000000472             2

    CHF Iterations converged

    Ind20,r (A<-B)      =    -0.000000015031 [Eh]
    Ind20,r (B<-A)      =    -0.000000003261 [Eh]
    Ind20,r             =    -0.000000018292 [Eh]
    Exch-Ind20,r (A<-B) =     0.000000000000 [Eh]
    Exch-Ind20,r (B<-A) =     0.000000000000 [Eh]
    Exch-Ind20,r        =     0.000000000000 [Eh]
    Disp20              =    -0.000000234974 [Eh]
    Disp20 (SS)         =    -0.000000117487 [Eh]
    Disp20 (OS)         =    -0.000000117487 [Eh]
    Exch-Disp20         =     0.000000000000 [Eh]
    Exch-Disp20 (SS)    =     0.000000000000 [Eh]
    Exch-Disp20 (OS)    =     0.000000000000 [Eh]

    SAPT Results 
  --------------------------------------------------------------------------------------------------------
    Electrostatics                 -0.00446250 [mEh]      -0.00280026 [kcal/mol]      -0.01171629 [kJ/mol]
      Elst10,r                     -0.00446250 [mEh]      -0.00280026 [kcal/mol]      -0.01171629 [kJ/mol]

    Exchange                        0.00000000 [mEh]       0.00000000 [kcal/mol]       0.00000000 [kJ/mol]
      Exch10                        0.00000000 [mEh]       0.00000000 [kcal/mol]       0.00000000 [kJ/mol]
      Exch10(S^2)                   0.00000000 [mEh]       0.00000000 [kcal/mol]       0.00000000 [kJ/mol]

    Induction                       0.00004503 [mEh]       0.00002826 [kcal/mol]       0.00011822 [kJ/mol]
      Ind20,r                      -0.00001829 [mEh]      -0.00001148 [kcal/mol]      -0.00004803 [kJ/mol]
      Exch-Ind20,r                  0.00000000 [mEh]       0.00000000 [kcal/mol]       0.00000000 [kJ/mol]
      delta HF,r (2)                0.00006332 [mEh]       0.00003973 [kcal/mol]       0.00016625 [kJ/mol]

    Dispersion                     -0.00023497 [mEh]      -0.00014745 [kcal/mol]      -0.00061692 [kJ/mol]
      Disp20                       -0.00023497 [mEh]      -0.00014745 [kcal/mol]      -0.00061692 [kJ/mol]
      Exch-Disp20                   0.00000000 [mEh]       0.00000000 [kcal/mol]       0.00000000 [kJ/mol]
      Disp20 (SS)                  -0.00011749 [mEh]      -0.00007372 [kcal/mol]      -0.00030846 [kJ/mol]
      Disp20 (OS)                  -0.00011749 [mEh]      -0.00007372 [kcal/mol]      -0.00030846 [kJ/mol]
      Exch-Disp20 (SS)              0.00000000 [mEh]       0.00000000 [kcal/mol]       0.00000000 [kJ/mol]
      Exch-Disp20 (OS)              0.00000000 [mEh]       0.00000000 [kcal/mol]       0.00000000 [kJ/mol]

  Total HF                         -0.00441747 [mEh]      -0.00277201 [kcal/mol]      -0.01159807 [kJ/mol]
  Total SAPT0                      -0.00465245 [mEh]      -0.00291945 [kcal/mol]      -0.01221500 [kJ/mol]

  Special recipe for scaled SAPT0 (see Manual):
    Electrostatics sSAPT0          -0.00446250 [mEh]      -0.00280026 [kcal/mol]      -0.01171629 [kJ/mol]
    Exchange sSAPT0                 0.00000000 [mEh]       0.00000000 [kcal/mol]       0.00000000 [kJ/mol]
    Induction sSAPT0                0.00004503 [mEh]       0.00002826 [kcal/mol]       0.00011822 [kJ/mol]
    Dispersion sSAPT0              -0.00023497 [mEh]      -0.00014745 [kcal/mol]      -0.00061692 [kJ/mol]
  Total sSAPT0                     -0.00465245 [mEh]      -0.00291945 [kcal/mol]      -0.01221500 [kJ/mol]
  --------------------------------------------------------------------------------------------------------

*** tstop() called on ds1 at Mon Oct  4 14:30:08 2021
Module time:
	user time   =      45.92 seconds =       0.77 minutes
	system time =       3.97 seconds =       0.07 minutes
	total time  =          9 seconds =       0.15 minutes
Total time:
	user time   =     101.07 seconds =       1.68 minutes
	system time =       5.25 seconds =       0.09 minutes
	total time  =         21 seconds =       0.35 minutes


Warning! sapt0 does not have an associated derived wavefunction.The returned wavefunction is the dimer SCF wavefunction.


    Psi4 stopped on: Monday, 04 October 2021 02:30PM
    Psi4 wall time for execution: 0:00:21.62

*** Psi4 exiting successfully. Buy a developer a beer!
