
    -----------------------------------------------------------------------
          Psi4: An Open-Source Ab Initio Electronic Structure Package
                               Psi4 1.4rc3 

                         Git: Rev {HEAD} 080dba6 


    D. G. A. Smith, L. A. Burns, A. C. Simmonett, R. M. Parrish,
    M. C. Schieber, R. Galvelis, P. Kraus, H. Kruse, R. Di Remigio,
    A. Alenaizan, A. M. James, S. Lehtola, J. P. Misiewicz, M. Scheurer,
    R. A. Shaw, J. B. Schriber, Y. Xie, Z. L. Glick, D. A. Sirianni,
    J. S. O'Brien, J. M. Waldrop, A. Kumar, E. G. Hohenstein,
    B. P. Pritchard, B. R. Brooks, H. F. Schaefer III, A. Yu. Sokolov,
    K. Patkowski, A. E. DePrince III, U. Bozkaya, R. A. King,
    F. A. Evangelista, J. M. Turney, T. D. Crawford, C. D. Sherrill,
    J. Chem. Phys. 152(18) 184108 (2020). https://doi.org/10.1063/5.0006002

                            Additional Code Authors
    E. T. Seidl, C. L. Janssen, E. F. Valeev, M. L. Leininger,
    J. F. Gonthier, R. M. Richard, H. R. McAlexander, M. Saitow, X. Wang,
    P. Verma, and M. H. Lechner

             Previous Authors, Complete List of Code Contributors,
                       and Citations for Specific Modules
    https://github.com/psi4/psi4/blob/master/codemeta.json
    https://github.com/psi4/psi4/graphs/contributors
    http://psicode.org/psi4manual/master/introduction.html#citing-psifour

    -----------------------------------------------------------------------


    Psi4 started on: Monday, 04 October 2021 03:37PM

    Process ID: 13449
    Host:       ds1
    PSIDATADIR: /theoryfs2/ds/csargent/miniconda3/envs/cle/share/psi4
    Memory:     500.0 MiB
    Threads:    6
    
  ==> Input File <==

--------------------------------------------------------------------------
# PSI4 file produced by CrystaLattE

# Generated from:               pyrazole.xyz
# Psithon input for N-mer:      2mer-0+379
# Number of atoms per monomer:  [9, 9]
# Number of replicas:           1
# COM priority:                 1.372996834373e-05
# Minimum COM separations:      22.099 
# Separation priority:          2.268849453546e-05
# Minimum monomer separations:  18.692 
# Cutoff priority:              6.423044138027e-07
# Nuclear repulsion energy:     364.392153709662

memory 7 GB

molecule Dimer_0_379 {
  N            6.27981210      -4.25303372       0.19313865 
  N            6.06870777      -2.28125697       1.80544317 
  H            3.66871156      -5.64628941      -1.96684001 
  H            0.69034521      -2.37545694      -0.42864236 
  H            3.35917442       0.17650601       3.09265017 
  H            7.35266782      -1.99461311       2.90680702 
  C            3.77952586      -1.21508453       1.76858172 
  C            2.38242998      -2.55505538       0.04607681 
  C            4.01771468      -4.38410490      -0.88761863 
--
  N          -28.15557558       9.60054745      27.18608831 
  N          -28.03671332       7.56264041      25.64891459 
  H          -25.48241284      12.00145742      27.90411866 
  H          -22.58777629       9.55891867      25.14898116 
  H          -25.52420036       5.84586966      23.24434485 
  H          -29.49912153       6.75266336      25.26314926 
  C          -25.75387692       7.23246474      24.61986574 
  C          -24.27088448       9.16213696      25.50978821 
  C          -25.83218981      10.54730477      27.10148616 
units = au
no_com
no_reorient
}

set {
  e_convergence 10
  d_convergence 10
  scf_type df
  mp2_type df
  cc_type df
  freeze_core true
}

energy('sapt0/aug-cc-pvdz')

--------------------------------------------------------------------------

  Memory set to   6.519 GiB by Python driver.

Scratch directory: /scratch/csargent/psi4.7158.66302/

Scratch directory: /scratch/csargent/psi4.7158.66302/

  //>>>>>>>>>>>>>>>>>>>>>>>>>>>>>>>>>>>//
  //              Dimer HF             //
  //<<<<<<<<<<<<<<<<<<<<<<<<<<<<<<<<<<<//


*** tstart() called on ds1
*** at Mon Oct  4 15:37:57 2021

   => Loading Basis Set <=

    Name: AUG-CC-PVDZ
    Role: ORBITAL
    Keyword: BASIS
    atoms 1-2, 10-11 entry N          line   218 file /theoryfs2/ds/csargent/miniconda3/envs/cle/share/psi4/basis/aug-cc-pvdz.gbs 
    atoms 3-6, 12-15 entry H          line    40 file /theoryfs2/ds/csargent/miniconda3/envs/cle/share/psi4/basis/aug-cc-pvdz.gbs 
    atoms 7-9, 16-18 entry C          line   182 file /theoryfs2/ds/csargent/miniconda3/envs/cle/share/psi4/basis/aug-cc-pvdz.gbs 


         ---------------------------------------------------------
                                   SCF
               by Justin Turney, Rob Parrish, Andy Simmonett
                          and Daniel G. A. Smith
                              RHF Reference
                        6 Threads,   6675 MiB Core
         ---------------------------------------------------------

  ==> Geometry <==

    Molecular point group: c1
    Full point group: C1

    Geometry (in Bohr), charge = 0, multiplicity = 1:

       Center              X                  Y                   Z               Mass       
    ------------   -----------------  -----------------  -----------------  -----------------
         N            6.279812100000    -4.253033720000     0.193138650000    14.003074004430
         N            6.068707770000    -2.281256970000     1.805443170000    14.003074004430
         H            3.668711560000    -5.646289410000    -1.966840010000     1.007825032230
         H            0.690345210000    -2.375456940000    -0.428642360000     1.007825032230
         H            3.359174420000     0.176506010000     3.092650170000     1.007825032230
         H            7.352667820000    -1.994613110000     2.906807020000     1.007825032230
         C            3.779525860000    -1.215084530000     1.768581720000    12.000000000000
         C            2.382429980000    -2.555055380000     0.046076810000    12.000000000000
         C            4.017714680000    -4.384104900000    -0.887618630000    12.000000000000
         N          -28.155575580000     9.600547450000    27.186088310000    14.003074004430
         N          -28.036713320000     7.562640410000    25.648914590000    14.003074004430
         H          -25.482412840000    12.001457420000    27.904118660000     1.007825032230
         H          -22.587776290000     9.558918670000    25.148981160000     1.007825032230
         H          -25.524200360000     5.845869660000    23.244344850000     1.007825032230
         H          -29.499121530000     6.752663360000    25.263149260000     1.007825032230
         C          -25.753876920000     7.232464740000    24.619865740000    12.000000000000
         C          -24.270884480000     9.162136960000    25.509788210000    12.000000000000
         C          -25.832189810000    10.547304770000    27.101486160000    12.000000000000

  Running in c1 symmetry.

  Rotational constants: A =      0.03651  B =      0.00060  C =      0.00059 [cm^-1]
  Rotational constants: A =   1094.58496  B =     17.98640  C =     17.80164 [MHz]
  Nuclear repulsion =  364.392153645775011

  Charge       = 0
  Multiplicity = 1
  Electrons    = 72
  Nalpha       = 36
  Nbeta        = 36

  ==> Algorithm <==

  SCF Algorithm Type is DF.
  DIIS enabled.
  MOM disabled.
  Fractional occupation disabled.
  Guess Type is SAD.
  Energy threshold   = 1.00e-10
  Density threshold  = 1.00e-10
  Integral threshold = 1.00e-12

  ==> Primary Basis <==

  Basis Set: AUG-CC-PVDZ
    Blend: AUG-CC-PVDZ
    Number of shells: 130
    Number of basis functions: 302
    Number of Cartesian functions: 322
    Spherical Harmonics?: true
    Max angular momentum: 2

   => Loading Basis Set <=

    Name: (AUG-CC-PVDZ AUX)
    Role: JKFIT
    Keyword: DF_BASIS_SCF
    atoms 1-2, 10-11 entry N          line   212 file /theoryfs2/ds/csargent/miniconda3/envs/cle/share/psi4/basis/aug-cc-pvdz-jkfit.gbs 
    atoms 3-6, 12-15 entry H          line    70 file /theoryfs2/ds/csargent/miniconda3/envs/cle/share/psi4/basis/aug-cc-pvdz-jkfit.gbs 
    atoms 7-9, 16-18 entry C          line   154 file /theoryfs2/ds/csargent/miniconda3/envs/cle/share/psi4/basis/aug-cc-pvdz-jkfit.gbs 

  ==> Integral Setup <==

  ==> DiskDFJK: Density-Fitted J/K Matrices <==

    J tasked:                  Yes
    K tasked:                  Yes
    wK tasked:                  No
    OpenMP threads:              6
    Integrals threads:           6
    Memory [MiB]:             5006
    Algorithm:                Core
    Integral Cache:           SAVE
    Schwarz Cutoff:          1E-12
    Fitting Condition:       1E-10

   => Auxiliary Basis Set <=

  Basis Set: (AUG-CC-PVDZ AUX)
    Blend: AUG-CC-PVDZ-JKFIT
    Number of shells: 376
    Number of basis functions: 1116
    Number of Cartesian functions: 1290
    Spherical Harmonics?: true
    Max angular momentum: 3

  Minimum eigenvalue in the overlap matrix is 3.0324469515E-05.
  Reciprocal condition number of the overlap matrix is 2.4867199548E-06.
    Using symmetric orthogonalization.

  ==> Pre-Iterations <==

  SCF Guess: Superposition of Atomic Densities via on-the-fly atomic UHF (no occupation information).

   -------------------------
    Irrep   Nso     Nmo    
   -------------------------
     A        302     302 
   -------------------------
    Total     302     302
   -------------------------

  ==> Iterations <==

                           Total Energy        Delta E     RMS |[F,P]|

   @DF-RHF iter SAD:  -449.44445655463903   -4.49444e+02   0.00000e+00 
   @DF-RHF iter   1:  -449.27106598128444    1.73391e-01   2.12803e-03 DIIS
   @DF-RHF iter   2:  -449.47978963203502   -2.08724e-01   9.73522e-04 DIIS
   @DF-RHF iter   3:  -449.52159717461569   -4.18075e-02   2.10073e-04 DIIS
   @DF-RHF iter   4:  -449.52436430249179   -2.76713e-03   8.55034e-05 DIIS
   @DF-RHF iter   5:  -449.52472020794295   -3.55905e-04   1.69539e-05 DIIS
   @DF-RHF iter   6:  -449.52475409078545   -3.38828e-05   7.02127e-06 DIIS
   @DF-RHF iter   7:  -449.52476199374104   -7.90296e-06   3.09252e-06 DIIS
   @DF-RHF iter   8:  -449.52476351309031   -1.51935e-06   1.43791e-06 DIIS
   @DF-RHF iter   9:  -449.52476384822802   -3.35138e-07   4.00710e-07 DIIS
   @DF-RHF iter  10:  -449.52476386587347   -1.76454e-08   1.20995e-07 DIIS
   @DF-RHF iter  11:  -449.52476386725408   -1.38061e-09   2.82733e-08 DIIS
   @DF-RHF iter  12:  -449.52476386734645   -9.23706e-11   8.23246e-09 DIIS
   @DF-RHF iter  13:  -449.52476386735543   -8.98126e-12   4.02062e-09 DIIS
   @DF-RHF iter  14:  -449.52476386735719   -1.76215e-12   1.39008e-09 DIIS
   @DF-RHF iter  15:  -449.52476386735754   -3.41061e-13   5.90637e-10 DIIS
   @DF-RHF iter  16:  -449.52476386735776   -2.27374e-13   1.78798e-10 DIIS
   @DF-RHF iter  17:  -449.52476386735793   -1.70530e-13   6.40676e-11 DIIS
  Energy and wave function converged.


  ==> Post-Iterations <==

    Orbital Energies [Eh]
    ---------------------

    Doubly Occupied:                                                      

       1A    -15.636668     2A    -15.636644     3A    -15.592733  
       4A    -15.592725     5A    -11.280352     6A    -11.280328  
       7A    -11.238205     8A    -11.238195     9A    -11.210341  
      10A    -11.210329    11A     -1.387436    12A     -1.387343  
      13A     -1.122327    14A     -1.122322    15A     -1.067376  
      16A     -1.067330    17A     -0.873198    18A     -0.873191  
      19A     -0.837489    20A     -0.837484    21A     -0.757728  
      22A     -0.757723    23A     -0.646186    24A     -0.646172  
      25A     -0.621277    26A     -0.621265    27A     -0.609612  
      28A     -0.609561    29A     -0.584354    30A     -0.584353  
      31A     -0.461842    32A     -0.461819    33A     -0.371151  
      34A     -0.371142    35A     -0.346500    36A     -0.346478  

    Virtual:                                                              

      37A      0.030301    38A      0.030303    39A      0.041856  
      40A      0.041898    41A      0.048718    42A      0.048735  
      43A      0.063051    44A      0.063080    45A      0.100553  
      46A      0.100553    47A      0.103593    48A      0.103613  
      49A      0.116746    50A      0.116756    51A      0.125838  
      52A      0.125849    53A      0.132608    54A      0.132626  
      55A      0.137904    56A      0.137942    57A      0.140979  
      58A      0.141008    59A      0.156370    60A      0.156408  
      61A      0.164101    62A      0.164132    63A      0.170652  
      64A      0.170657    65A      0.177961    66A      0.177983  
      67A      0.195633    68A      0.195640    69A      0.204380  
      70A      0.204386    71A      0.205759    72A      0.205764  
      73A      0.239792    74A      0.239807    75A      0.243192  
      76A      0.243205    77A      0.244541    78A      0.244559  
      79A      0.270719    80A      0.270720    81A      0.278647  
      82A      0.278658    83A      0.300617    84A      0.300619  
      85A      0.324697    86A      0.324720    87A      0.351909  
      88A      0.351926    89A      0.354896    90A      0.354919  
      91A      0.374450    92A      0.374462    93A      0.395599  
      94A      0.395614    95A      0.402297    96A      0.402309  
      97A      0.414501    98A      0.414530    99A      0.431695  
     100A      0.431711   101A      0.442961   102A      0.442980  
     103A      0.452976   104A      0.452983   105A      0.459370  
     106A      0.459382   107A      0.478214   108A      0.478226  
     109A      0.498099   110A      0.498115   111A      0.508252  
     112A      0.508265   113A      0.521473   114A      0.521491  
     115A      0.541120   116A      0.541128   117A      0.573988  
     118A      0.574007   119A      0.585870   120A      0.585882  
     121A      0.590090   122A      0.590100   123A      0.601978  
     124A      0.601980   125A      0.620519   126A      0.620522  
     127A      0.645659   128A      0.645675   129A      0.654831  
     130A      0.654847   131A      0.675717   132A      0.675728  
     133A      0.697590   134A      0.697610   135A      0.699935  
     136A      0.699960   137A      0.721209   138A      0.721242  
     139A      0.724660   140A      0.724673   141A      0.747272  
     142A      0.747279   143A      0.758161   144A      0.758194  
     145A      0.772853   146A      0.772889   147A      0.781041  
     148A      0.781059   149A      0.828084   150A      0.828090  
     151A      0.837792   152A      0.837799   153A      0.847931  
     154A      0.847961   155A      0.880943   156A      0.880964  
     157A      0.888305   158A      0.888327   159A      0.906507  
     160A      0.906523   161A      0.924365   162A      0.924393  
     163A      0.942157   164A      0.942158   165A      0.977757  
     166A      0.977791   167A      0.984408   168A      0.984422  
     169A      1.010740   170A      1.010748   171A      1.046196  
     172A      1.046202   173A      1.066052   174A      1.066070  
     175A      1.100420   176A      1.100431   177A      1.127627  
     178A      1.127650   179A      1.133713   180A      1.133771  
     181A      1.149787   182A      1.149798   183A      1.174722  
     184A      1.174740   185A      1.220105   186A      1.220129  
     187A      1.269126   188A      1.269127   189A      1.302924  
     190A      1.302958   191A      1.310979   192A      1.310998  
     193A      1.365366   194A      1.365387   195A      1.400588  
     196A      1.400610   197A      1.474276   198A      1.474278  
     199A      1.511585   200A      1.511604   201A      1.525689  
     202A      1.525698   203A      1.560532   204A      1.560563  
     205A      1.590433   206A      1.590443   207A      1.608230  
     208A      1.608236   209A      1.636976   210A      1.636997  
     211A      1.669037   212A      1.669040   213A      1.703191  
     214A      1.703203   215A      1.723516   216A      1.723523  
     217A      1.748790   218A      1.748808   219A      1.763922  
     220A      1.763944   221A      1.804585   222A      1.804623  
     223A      1.875136   224A      1.875196   225A      1.931964  
     226A      1.931965   227A      1.943103   228A      1.943118  
     229A      1.987637   230A      1.987692   231A      2.021014  
     232A      2.021020   233A      2.057181   234A      2.057215  
     235A      2.088365   236A      2.088409   237A      2.144261  
     238A      2.144267   239A      2.189548   240A      2.189571  
     241A      2.200380   242A      2.200396   243A      2.230014  
     244A      2.230031   245A      2.275383   246A      2.275395  
     247A      2.307194   248A      2.307213   249A      2.360201  
     250A      2.360288   251A      2.388681   252A      2.388704  
     253A      2.393330   254A      2.393404   255A      2.434768  
     256A      2.434828   257A      2.464513   258A      2.464549  
     259A      2.531343   260A      2.531372   261A      2.569754  
     262A      2.569807   263A      2.584296   264A      2.584388  
     265A      2.642519   266A      2.642535   267A      2.732568  
     268A      2.732598   269A      2.826369   270A      2.826415  
     271A      2.834268   272A      2.834327   273A      2.901109  
     274A      2.901166   275A      2.918128   276A      2.918177  
     277A      2.998728   278A      2.998750   279A      3.054871  
     280A      3.054898   281A      3.091941   282A      3.092009  
     283A      3.122262   284A      3.122304   285A      3.188508  
     286A      3.188573   287A      3.221579   288A      3.221584  
     289A      3.297446   290A      3.297480   291A      3.379765  
     292A      3.379799   293A      3.520306   294A      3.520328  
     295A      3.685849   296A      3.686134   297A      3.888819  
     298A      3.888909   299A      4.208881   300A      4.209010  
     301A      4.462580   302A      4.462801  

    Final Occupation by Irrep:
              A 
    DOCC [    36 ]

  @DF-RHF Final Energy:  -449.52476386735793

   => Energetics <=

    Nuclear Repulsion Energy =            364.3921536457750108
    One-Electron Energy =               -1329.2554744493268117
    Two-Electron Energy =                 515.3385569361938678
    Total Energy =                       -449.5247638673579331

Computation Completed


Properties will be evaluated at   0.000000,   0.000000,   0.000000 [a0]

Properties computed using the SCF density matrix

  Nuclear Dipole Moment: [e a0]
     X:  -788.9927      Y:   211.4473      Z:   957.9487

  Electronic Dipole Moment: [e a0]
     X:   788.8808      Y:  -211.3798      Z:  -958.0721

  Dipole Moment: [e a0]
     X:    -0.1118      Y:     0.0675      Z:    -0.1233     Total:     0.1797

  Dipole Moment: [D]
     X:    -0.2843      Y:     0.1716      Z:    -0.3135     Total:     0.4566


*** tstop() called on ds1 at Mon Oct  4 15:38:01 2021
Module time:
	user time   =      22.08 seconds =       0.37 minutes
	system time =       0.58 seconds =       0.01 minutes
	total time  =          4 seconds =       0.07 minutes
Total time:
	user time   =      22.08 seconds =       0.37 minutes
	system time =       0.58 seconds =       0.01 minutes
	total time  =          4 seconds =       0.07 minutes

  //>>>>>>>>>>>>>>>>>>>>>>>>>>>>>>>>>>>//
  //            Monomer A HF           //
  //<<<<<<<<<<<<<<<<<<<<<<<<<<<<<<<<<<<//


*** tstart() called on ds1
*** at Mon Oct  4 15:38:01 2021

   => Loading Basis Set <=

    Name: AUG-CC-PVDZ
    Role: ORBITAL
    Keyword: BASIS
    atoms 1-2, 10-11 entry N          line   218 file /theoryfs2/ds/csargent/miniconda3/envs/cle/share/psi4/basis/aug-cc-pvdz.gbs 
    atoms 3-6, 12-15 entry H          line    40 file /theoryfs2/ds/csargent/miniconda3/envs/cle/share/psi4/basis/aug-cc-pvdz.gbs 
    atoms 7-9, 16-18 entry C          line   182 file /theoryfs2/ds/csargent/miniconda3/envs/cle/share/psi4/basis/aug-cc-pvdz.gbs 


         ---------------------------------------------------------
                                   SCF
               by Justin Turney, Rob Parrish, Andy Simmonett
                          and Daniel G. A. Smith
                              RHF Reference
                        6 Threads,   6675 MiB Core
         ---------------------------------------------------------

  ==> Geometry <==

    Molecular point group: c1
    Full point group: C1

    Geometry (in Bohr), charge = 0, multiplicity = 1:

       Center              X                  Y                   Z               Mass       
    ------------   -----------------  -----------------  -----------------  -----------------
         N            6.279812100000    -4.253033720000     0.193138650000    14.003074004430
         N            6.068707770000    -2.281256970000     1.805443170000    14.003074004430
         H            3.668711560000    -5.646289410000    -1.966840010000     1.007825032230
         H            0.690345210000    -2.375456940000    -0.428642360000     1.007825032230
         H            3.359174420000     0.176506010000     3.092650170000     1.007825032230
         H            7.352667820000    -1.994613110000     2.906807020000     1.007825032230
         C            3.779525860000    -1.215084530000     1.768581720000    12.000000000000
         C            2.382429980000    -2.555055380000     0.046076810000    12.000000000000
         C            4.017714680000    -4.384104900000    -0.887618630000    12.000000000000
      Gh(N)         -28.155575580000     9.600547450000    27.186088310000    14.003074004430
      Gh(N)         -28.036713320000     7.562640410000    25.648914590000    14.003074004430
      Gh(H)         -25.482412840000    12.001457420000    27.904118660000     1.007825032230
      Gh(H)         -22.587776290000     9.558918670000    25.148981160000     1.007825032230
      Gh(H)         -25.524200360000     5.845869660000    23.244344850000     1.007825032230
      Gh(H)         -29.499121530000     6.752663360000    25.263149260000     1.007825032230
      Gh(C)         -25.753876920000     7.232464740000    24.619865740000    12.000000000000
      Gh(C)         -24.270884480000     9.162136960000    25.509788210000    12.000000000000
      Gh(C)         -25.832189810000    10.547304770000    27.101486160000    12.000000000000

  Running in c1 symmetry.

  Rotational constants: A =      0.03651  B =      0.00060  C =      0.00059 [cm^-1]
  Rotational constants: A =   1094.58496  B =     17.98640  C =     17.80164 [MHz]
  Nuclear repulsion =  166.624056450327203

  Charge       = 0
  Multiplicity = 1
  Electrons    = 36
  Nalpha       = 18
  Nbeta        = 18

  ==> Algorithm <==

  SCF Algorithm Type is DF.
  DIIS enabled.
  MOM disabled.
  Fractional occupation disabled.
  Guess Type is SAD.
  Energy threshold   = 1.00e-10
  Density threshold  = 1.00e-10
  Integral threshold = 1.00e-12

  ==> Primary Basis <==

  Basis Set: AUG-CC-PVDZ
    Blend: AUG-CC-PVDZ
    Number of shells: 130
    Number of basis functions: 302
    Number of Cartesian functions: 322
    Spherical Harmonics?: true
    Max angular momentum: 2

   => Loading Basis Set <=

    Name: (AUG-CC-PVDZ AUX)
    Role: JKFIT
    Keyword: DF_BASIS_SCF
    atoms 1-2, 10-11 entry N          line   212 file /theoryfs2/ds/csargent/miniconda3/envs/cle/share/psi4/basis/aug-cc-pvdz-jkfit.gbs 
    atoms 3-6, 12-15 entry H          line    70 file /theoryfs2/ds/csargent/miniconda3/envs/cle/share/psi4/basis/aug-cc-pvdz-jkfit.gbs 
    atoms 7-9, 16-18 entry C          line   154 file /theoryfs2/ds/csargent/miniconda3/envs/cle/share/psi4/basis/aug-cc-pvdz-jkfit.gbs 

  ==> Integral Setup <==

  ==> DiskDFJK: Density-Fitted J/K Matrices <==

    J tasked:                  Yes
    K tasked:                  Yes
    wK tasked:                  No
    OpenMP threads:              6
    Integrals threads:           6
    Memory [MiB]:             5006
    Algorithm:                Core
    Integral Cache:           LOAD
    Schwarz Cutoff:          1E-12
    Fitting Condition:       1E-10

   => Auxiliary Basis Set <=

  Basis Set: (AUG-CC-PVDZ AUX)
    Blend: AUG-CC-PVDZ-JKFIT
    Number of shells: 376
    Number of basis functions: 1116
    Number of Cartesian functions: 1290
    Spherical Harmonics?: true
    Max angular momentum: 3

  Minimum eigenvalue in the overlap matrix is 3.0324469515E-05.
  Reciprocal condition number of the overlap matrix is 2.4867199548E-06.
    Using symmetric orthogonalization.

  ==> Pre-Iterations <==

  SCF Guess: Superposition of Atomic Densities via on-the-fly atomic UHF (no occupation information).

   -------------------------
    Irrep   Nso     Nmo    
   -------------------------
     A        302     302 
   -------------------------
    Total     302     302
   -------------------------

  ==> Iterations <==

                           Total Energy        Delta E     RMS |[F,P]|

   @DF-RHF iter SAD:  -224.72194801289541   -2.24722e+02   0.00000e+00 
   @DF-RHF iter   1:  -224.63549169945128    8.64563e-02   1.50472e-03 DIIS
   @DF-RHF iter   2:  -224.73984613200457   -1.04354e-01   6.88462e-04 DIIS
   @DF-RHF iter   3:  -224.76075487090731   -2.09087e-02   1.48626e-04 DIIS
   @DF-RHF iter   4:  -224.76213931467433   -1.38444e-03   6.05310e-05 DIIS
   @DF-RHF iter   5:  -224.76231766943252   -1.78355e-04   1.19893e-05 DIIS
   @DF-RHF iter   6:  -224.76233462690644   -1.69575e-05   4.96772e-06 DIIS
   @DF-RHF iter   7:  -224.76233858294336   -3.95604e-06   2.18806e-06 DIIS
   @DF-RHF iter   8:  -224.76233934368568   -7.60742e-07   1.01700e-06 DIIS
   @DF-RHF iter   9:  -224.76233951132753   -1.67642e-07   2.83302e-07 DIIS
   @DF-RHF iter  10:  -224.76233952014860   -8.82108e-09   8.55547e-08 DIIS
   @DF-RHF iter  11:  -224.76233952083808   -6.89482e-10   1.99714e-08 DIIS
   @DF-RHF iter  12:  -224.76233952088450   -4.64127e-11   5.81092e-09 DIIS
   @DF-RHF iter  13:  -224.76233952088864   -4.14957e-12   2.83097e-09 DIIS
   @DF-RHF iter  14:  -224.76233952088958   -9.37916e-13   9.75191e-10 DIIS
   @DF-RHF iter  15:  -224.76233952089001   -4.26326e-13   4.15548e-10 DIIS
   @DF-RHF iter  16:  -224.76233952089001    0.00000e+00   1.25998e-10 DIIS
   @DF-RHF iter  17:  -224.76233952088970    3.12639e-13   4.47780e-11 DIIS
  Energy and wave function converged.


  ==> Post-Iterations <==

    Orbital Energies [Eh]
    ---------------------

    Doubly Occupied:                                                      

       1A    -15.636223     2A    -15.592313     3A    -11.279894  
       4A    -11.237784     5A    -11.209891     6A     -1.386922  
       7A     -1.121901     8A     -1.066898     9A     -0.872768  
      10A     -0.837061    11A     -0.757292    12A     -0.645746  
      13A     -0.620834    14A     -0.609140    15A     -0.583920  
      16A     -0.461404    17A     -0.370721    18A     -0.346048  

    Virtual:                                                              

      19A      0.022252    20A      0.030764    21A      0.039600  
      22A      0.042368    23A      0.043685    24A      0.049159  
      25A      0.063520    26A      0.065427    27A      0.083563  
      28A      0.090368    29A      0.098533    30A      0.100998  
      31A      0.104029    32A      0.117179    33A      0.117918  
      34A      0.125408    35A      0.126270    36A      0.127774  
      37A      0.132948    38A      0.133069    39A      0.133686  
      40A      0.138403    41A      0.141490    42A      0.156889  
      43A      0.158089    44A      0.164592    45A      0.165514  
      46A      0.171075    47A      0.178408    48A      0.178768  
      49A      0.195126    50A      0.196042    51A      0.201129  
      52A      0.204793    53A      0.206162    54A      0.222582  
      55A      0.224718    56A      0.227863    57A      0.235189  
      58A      0.240236    59A      0.243626    60A      0.244965  
      61A      0.263690    62A      0.270613    63A      0.271127  
      64A      0.279080    65A      0.301010    66A      0.321553  
      67A      0.325148    68A      0.339668    69A      0.352358  
      70A      0.355357    71A      0.366157    72A      0.372485  
      73A      0.374907    74A      0.383309    75A      0.396061  
      76A      0.402741    77A      0.414998    78A      0.427068  
      79A      0.431656    80A      0.432132    81A      0.440734  
      82A      0.441889    83A      0.443385    84A      0.453393  
      85A      0.455620    86A      0.457022    87A      0.459816  
      88A      0.461491    89A      0.478655    90A      0.498543  
      91A      0.508690    92A      0.509327    93A      0.519043  
      94A      0.521917    95A      0.532747    96A      0.537636  
      97A      0.541560    98A      0.558919    99A      0.568454  
     100A      0.571427   101A      0.574432   102A      0.586318  
     103A      0.590538   104A      0.594747   105A      0.602413  
     106A      0.612971   107A      0.620873   108A      0.620953  
     109A      0.633140   110A      0.646110   111A      0.655295  
     112A      0.676162   113A      0.690428   114A      0.698041  
     115A      0.700391   116A      0.707433   117A      0.719047  
     118A      0.721667   119A      0.725115   120A      0.735256  
     121A      0.744977   122A      0.747709   123A      0.758592  
     124A      0.773318   125A      0.781481   126A      0.789334  
     127A      0.797733   128A      0.814044   129A      0.820552  
     130A      0.828504   131A      0.838230   132A      0.848393  
     133A      0.851541   134A      0.854706   135A      0.870603  
     136A      0.880690   137A      0.881395   138A      0.888767  
     139A      0.895301   140A      0.906950   141A      0.915785  
     142A      0.924815   143A      0.942582   144A      0.951753  
     145A      0.978222   146A      0.984850   147A      0.996828  
     148A      1.011149   149A      1.023822   150A      1.029911  
     151A      1.046606   152A      1.051307   153A      1.066503  
     154A      1.070733   155A      1.080636   156A      1.100852  
     157A      1.107890   158A      1.128058   159A      1.134196  
     160A      1.150235   161A      1.158503   162A      1.166010  
     163A      1.175168   164A      1.184668   165A      1.220548  
     166A      1.221467   167A      1.236767   168A      1.267696  
     169A      1.269556   170A      1.293490   171A      1.303342  
     172A      1.311399   173A      1.314872   174A      1.340394  
     175A      1.365807   176A      1.381566   177A      1.401043  
     178A      1.434753   179A      1.444488   180A      1.474691  
     181A      1.492939   182A      1.506809   183A      1.512027  
     184A      1.526129   185A      1.560989   186A      1.590882  
     187A      1.608669   188A      1.637437   189A      1.669472  
     190A      1.676469   191A      1.688647   192A      1.703634  
     193A      1.723950   194A      1.749215   195A      1.764373  
     196A      1.805048   197A      1.875632   198A      1.932390  
     199A      1.943558   200A      1.988067   201A      2.021445  
     202A      2.040774   203A      2.057611   204A      2.088839  
     205A      2.108775   206A      2.134503   207A      2.144687  
     208A      2.167787   209A      2.190005   210A      2.200827  
     211A      2.216329   212A      2.230457   213A      2.233559  
     214A      2.261577   215A      2.275825   216A      2.277440  
     217A      2.288970   218A      2.307640   219A      2.335356  
     220A      2.360716   221A      2.380321   222A      2.389130  
     223A      2.393822   224A      2.394248   225A      2.435246  
     226A      2.443574   227A      2.464967   228A      2.477998  
     229A      2.499629   230A      2.513441   231A      2.531798  
     232A      2.548517   233A      2.570232   234A      2.584716  
     235A      2.631060   236A      2.642961   237A      2.667266  
     238A      2.702771   239A      2.718608   240A      2.733029  
     241A      2.826838   242A      2.827669   243A      2.834751  
     244A      2.869570   245A      2.889741   246A      2.901587  
     247A      2.918598   248A      2.944831   249A      2.999157  
     250A      3.027707   251A      3.055324   252A      3.089493  
     253A      3.092358   254A      3.122730   255A      3.139763  
     256A      3.181627   257A      3.188930   258A      3.222008  
     259A      3.253917   260A      3.288896   261A      3.297865  
     262A      3.355434   263A      3.380235   264A      3.395403  
     265A      3.423179   266A      3.447963   267A      3.486955  
     268A      3.497272   269A      3.520727   270A      3.633408  
     271A      3.666726   272A      3.686563   273A      3.735379  
     274A      3.769910   275A      3.850929   276A      3.889327  
     277A      3.964281   278A      4.035437   279A      4.094541  
     280A      4.209428   281A      4.243841   282A      4.448023  
     283A      4.463235   284A      4.658280   285A      4.707946  
     286A      4.749686   287A      4.810610   288A      4.994617  
     289A      5.076500   290A      5.241006   291A      5.531254  
     292A      5.668827   293A      5.826421   294A      6.106814  
     295A      6.317907   296A      6.707334   297A      6.967293  
     298A     18.110903   299A     18.647809   300A     19.373417  
     301A     25.245250   302A     25.705137  

    Final Occupation by Irrep:
              A 
    DOCC [    18 ]

  @DF-RHF Final Energy:  -224.76233952088970

   => Energetics <=

    Nuclear Repulsion Energy =            166.6240564503272026
    One-Electron Energy =                -633.4992733845137991
    Two-Electron Energy =                 242.1128774132968999
    Total Energy =                       -224.7623395208896966

Computation Completed


Properties will be evaluated at   0.000000,   0.000000,   0.000000 [a0]

Properties computed using the SCF density matrix

  Nuclear Dipole Moment: [e a0]
     X:   162.5886      Y:  -104.5054      Z:    23.1563

  Electronic Dipole Moment: [e a0]
     X:  -162.9913      Y:   105.1370      Z:   -22.5767

  Dipole Moment: [e a0]
     X:    -0.4027      Y:     0.6317      Z:     0.5796     Total:     0.9472

  Dipole Moment: [D]
     X:    -1.0235      Y:     1.6055      Z:     1.4733     Total:     2.4075


*** tstop() called on ds1 at Mon Oct  4 15:38:05 2021
Module time:
	user time   =      15.91 seconds =       0.27 minutes
	system time =       0.31 seconds =       0.01 minutes
	total time  =          4 seconds =       0.07 minutes
Total time:
	user time   =      38.16 seconds =       0.64 minutes
	system time =       0.90 seconds =       0.02 minutes
	total time  =          8 seconds =       0.13 minutes

  //>>>>>>>>>>>>>>>>>>>>>>>>>>>>>>>>>>>//
  //            Monomer B HF           //
  //<<<<<<<<<<<<<<<<<<<<<<<<<<<<<<<<<<<//


*** tstart() called on ds1
*** at Mon Oct  4 15:38:05 2021

   => Loading Basis Set <=

    Name: AUG-CC-PVDZ
    Role: ORBITAL
    Keyword: BASIS
    atoms 1-2, 10-11 entry N          line   218 file /theoryfs2/ds/csargent/miniconda3/envs/cle/share/psi4/basis/aug-cc-pvdz.gbs 
    atoms 3-6, 12-15 entry H          line    40 file /theoryfs2/ds/csargent/miniconda3/envs/cle/share/psi4/basis/aug-cc-pvdz.gbs 
    atoms 7-9, 16-18 entry C          line   182 file /theoryfs2/ds/csargent/miniconda3/envs/cle/share/psi4/basis/aug-cc-pvdz.gbs 


         ---------------------------------------------------------
                                   SCF
               by Justin Turney, Rob Parrish, Andy Simmonett
                          and Daniel G. A. Smith
                              RHF Reference
                        6 Threads,   6675 MiB Core
         ---------------------------------------------------------

  ==> Geometry <==

    Molecular point group: c1
    Full point group: C1

    Geometry (in Bohr), charge = 0, multiplicity = 1:

       Center              X                  Y                   Z               Mass       
    ------------   -----------------  -----------------  -----------------  -----------------
      Gh(N)           6.279812100000    -4.253033720000     0.193138650000    14.003074004430
      Gh(N)           6.068707770000    -2.281256970000     1.805443170000    14.003074004430
      Gh(H)           3.668711560000    -5.646289410000    -1.966840010000     1.007825032230
      Gh(H)           0.690345210000    -2.375456940000    -0.428642360000     1.007825032230
      Gh(H)           3.359174420000     0.176506010000     3.092650170000     1.007825032230
      Gh(H)           7.352667820000    -1.994613110000     2.906807020000     1.007825032230
      Gh(C)           3.779525860000    -1.215084530000     1.768581720000    12.000000000000
      Gh(C)           2.382429980000    -2.555055380000     0.046076810000    12.000000000000
      Gh(C)           4.017714680000    -4.384104900000    -0.887618630000    12.000000000000
         N          -28.155575580000     9.600547450000    27.186088310000    14.003074004430
         N          -28.036713320000     7.562640410000    25.648914590000    14.003074004430
         H          -25.482412840000    12.001457420000    27.904118660000     1.007825032230
         H          -22.587776290000     9.558918670000    25.148981160000     1.007825032230
         H          -25.524200360000     5.845869660000    23.244344850000     1.007825032230
         H          -29.499121530000     6.752663360000    25.263149260000     1.007825032230
         C          -25.753876920000     7.232464740000    24.619865740000    12.000000000000
         C          -24.270884480000     9.162136960000    25.509788210000    12.000000000000
         C          -25.832189810000    10.547304770000    27.101486160000    12.000000000000

  Running in c1 symmetry.

  Rotational constants: A =      0.03651  B =      0.00060  C =      0.00059 [cm^-1]
  Rotational constants: A =   1094.58496  B =     17.98640  C =     17.80164 [MHz]
  Nuclear repulsion =  166.628602750945532

  Charge       = 0
  Multiplicity = 1
  Electrons    = 36
  Nalpha       = 18
  Nbeta        = 18

  ==> Algorithm <==

  SCF Algorithm Type is DF.
  DIIS enabled.
  MOM disabled.
  Fractional occupation disabled.
  Guess Type is SAD.
  Energy threshold   = 1.00e-10
  Density threshold  = 1.00e-10
  Integral threshold = 1.00e-12

  ==> Primary Basis <==

  Basis Set: AUG-CC-PVDZ
    Blend: AUG-CC-PVDZ
    Number of shells: 130
    Number of basis functions: 302
    Number of Cartesian functions: 322
    Spherical Harmonics?: true
    Max angular momentum: 2

   => Loading Basis Set <=

    Name: (AUG-CC-PVDZ AUX)
    Role: JKFIT
    Keyword: DF_BASIS_SCF
    atoms 1-2, 10-11 entry N          line   212 file /theoryfs2/ds/csargent/miniconda3/envs/cle/share/psi4/basis/aug-cc-pvdz-jkfit.gbs 
    atoms 3-6, 12-15 entry H          line    70 file /theoryfs2/ds/csargent/miniconda3/envs/cle/share/psi4/basis/aug-cc-pvdz-jkfit.gbs 
    atoms 7-9, 16-18 entry C          line   154 file /theoryfs2/ds/csargent/miniconda3/envs/cle/share/psi4/basis/aug-cc-pvdz-jkfit.gbs 

  ==> Integral Setup <==

  ==> DiskDFJK: Density-Fitted J/K Matrices <==

    J tasked:                  Yes
    K tasked:                  Yes
    wK tasked:                  No
    OpenMP threads:              6
    Integrals threads:           6
    Memory [MiB]:             5006
    Algorithm:                Core
    Integral Cache:           LOAD
    Schwarz Cutoff:          1E-12
    Fitting Condition:       1E-10

   => Auxiliary Basis Set <=

  Basis Set: (AUG-CC-PVDZ AUX)
    Blend: AUG-CC-PVDZ-JKFIT
    Number of shells: 376
    Number of basis functions: 1116
    Number of Cartesian functions: 1290
    Spherical Harmonics?: true
    Max angular momentum: 3

  Minimum eigenvalue in the overlap matrix is 3.0324469515E-05.
  Reciprocal condition number of the overlap matrix is 2.4867199548E-06.
    Using symmetric orthogonalization.

  ==> Pre-Iterations <==

  SCF Guess: Superposition of Atomic Densities via on-the-fly atomic UHF (no occupation information).

   -------------------------
    Irrep   Nso     Nmo    
   -------------------------
     A        302     302 
   -------------------------
    Total     302     302
   -------------------------

  ==> Iterations <==

                           Total Energy        Delta E     RMS |[F,P]|

   @DF-RHF iter SAD:  -224.72250854051501   -2.24723e+02   0.00000e+00 
   @DF-RHF iter   1:  -224.63556595925112    8.69426e-02   1.50490e-03 DIIS
   @DF-RHF iter   2:  -224.73993304635661   -1.04367e-01   6.88620e-04 DIIS
   @DF-RHF iter   3:  -224.76085079970741   -2.09178e-02   1.48614e-04 DIIS
   @DF-RHF iter   4:  -224.76223499836024   -1.38420e-03   6.05151e-05 DIIS
   @DF-RHF iter   5:  -224.76241324286192   -1.78245e-04   1.19848e-05 DIIS
   @DF-RHF iter   6:  -224.76243017601050   -1.69331e-05   4.96323e-06 DIIS
   @DF-RHF iter   7:  -224.76243412385369   -3.94784e-06   2.18627e-06 DIIS
   @DF-RHF iter   8:  -224.76243488339247   -7.59539e-07   1.01631e-06 DIIS
   @DF-RHF iter   9:  -224.76243505089738   -1.67505e-07   2.83280e-07 DIIS
   @DF-RHF iter  10:  -224.76243505971496   -8.81758e-09   8.55270e-08 DIIS
   @DF-RHF iter  11:  -224.76243506040453   -6.89568e-10   1.99678e-08 DIIS
   @DF-RHF iter  12:  -224.76243506045054   -4.60147e-11   5.80973e-09 DIIS
   @DF-RHF iter  13:  -224.76243506045506   -4.51905e-12   2.83582e-09 DIIS
   @DF-RHF iter  14:  -224.76243506045563   -5.68434e-13   9.79833e-10 DIIS
   @DF-RHF iter  15:  -224.76243506045628   -6.53699e-13   4.16537e-10 DIIS
   @DF-RHF iter  16:  -224.76243506045577    5.11591e-13   1.25808e-10 DIIS
   @DF-RHF iter  17:  -224.76243506045617   -3.97904e-13   4.47602e-11 DIIS
  Energy and wave function converged.


  ==> Post-Iterations <==

    Orbital Energies [Eh]
    ---------------------

    Doubly Occupied:                                                      

       1A    -15.636233     2A    -15.592291     3A    -11.279903  
       4A    -11.237759     5A    -11.209884     6A     -1.387001  
       7A     -1.121894     8A     -1.066928     9A     -0.872759  
      10A     -0.837039    11A     -0.757272    12A     -0.645745  
      13A     -0.620828    14A     -0.609177    15A     -0.583905  
      16A     -0.461413    17A     -0.370715    18A     -0.346055  

    Virtual:                                                              

      19A      0.022269    20A      0.030764    21A      0.039611  
      22A      0.042369    23A      0.043720    24A      0.049158  
      25A      0.063519    26A      0.065453    27A      0.083573  
      28A      0.090379    29A      0.098553    30A      0.101001  
      31A      0.104028    32A      0.117186    33A      0.117941  
      34A      0.125425    35A      0.126272    36A      0.127803  
      37A      0.132969    38A      0.133070    39A      0.133702  
      40A      0.138399    41A      0.141487    42A      0.156889  
      43A      0.158126    44A      0.164594    45A      0.165538  
      46A      0.171081    47A      0.178407    48A      0.178796  
      49A      0.195128    50A      0.196040    51A      0.201133  
      52A      0.204806    53A      0.206166    54A      0.222585  
      55A      0.224730    56A      0.227879    57A      0.235202  
      58A      0.240240    59A      0.243627    60A      0.244965  
      61A      0.263708    62A      0.270622    63A      0.271138  
      64A      0.279081    65A      0.301024    66A      0.321563  
      67A      0.325138    68A      0.339684    69A      0.352354  
      70A      0.355359    71A      0.366158    72A      0.372505  
      73A      0.374909    74A      0.383331    75A      0.396062  
      76A      0.402744    77A      0.415005    78A      0.427091  
      79A      0.431663    80A      0.432131    81A      0.440762  
      82A      0.441915    83A      0.443379    84A      0.453414  
      85A      0.455626    86A      0.457040    87A      0.459816  
      88A      0.461511    89A      0.478656    90A      0.498544  
      91A      0.508693    92A      0.509336    93A      0.519051  
      94A      0.521953    95A      0.532759    96A      0.537659  
      97A      0.541569    98A      0.558939    99A      0.568457  
     100A      0.571444   101A      0.574428   102A      0.586322  
     103A      0.590547   104A      0.594780   105A      0.602431  
     106A      0.612993   107A      0.620881   108A      0.620974  
     109A      0.633151   110A      0.646111   111A      0.655304  
     112A      0.676168   113A      0.690452   114A      0.698039  
     115A      0.700384   116A      0.707452   117A      0.719063  
     118A      0.721648   119A      0.725121   120A      0.735276  
     121A      0.744993   122A      0.747717   123A      0.758643  
     124A      0.773300   125A      0.781476   126A      0.789344  
     127A      0.797740   128A      0.814068   129A      0.820569  
     130A      0.828513   131A      0.838238   132A      0.848382  
     133A      0.851556   134A      0.854721   135A      0.870640  
     136A      0.880696   137A      0.881397   138A      0.888762  
     139A      0.895316   140A      0.906950   141A      0.915793  
     142A      0.924803   143A      0.942599   144A      0.951751  
     145A      0.978204   146A      0.984853   147A      0.996836  
     148A      1.011170   149A      1.023845   150A      1.029928  
     151A      1.046624   152A      1.051326   153A      1.066503  
     154A      1.070764   155A      1.080662   156A      1.100853  
     157A      1.107881   158A      1.128099   159A      1.134152  
     160A      1.150240   161A      1.158505   162A      1.166012  
     163A      1.175167   164A      1.184682   165A      1.220538  
     166A      1.221444   167A      1.236750   168A      1.267720  
     169A      1.269573   170A      1.293475   171A      1.303390  
     172A      1.311431   173A      1.314873   174A      1.340413  
     175A      1.365802   176A      1.381571   177A      1.401039  
     178A      1.434742   179A      1.444461   180A      1.474706  
     181A      1.492961   182A      1.506769   183A      1.512021  
     184A      1.526136   185A      1.560976   186A      1.590889  
     187A      1.608679   188A      1.637435   189A      1.669494  
     190A      1.676467   191A      1.688654   192A      1.703636  
     193A      1.723957   194A      1.749249   195A      1.764367  
     196A      1.805025   197A      1.875589   198A      1.932406  
     199A      1.943562   200A      1.988139   201A      2.021453  
     202A      2.040798   203A      2.057662   204A      2.088810  
     205A      2.108787   206A      2.134568   207A      2.144708  
     208A      2.167821   209A      2.189999   210A      2.200828  
     211A      2.216371   212A      2.230454   213A      2.233584  
     214A      2.261595   215A      2.275832   216A      2.277494  
     217A      2.288993   218A      2.307637   219A      2.335437  
     220A      2.360646   221A      2.380325   222A      2.389121  
     223A      2.393758   224A      2.394266   225A      2.435199  
     226A      2.443606   227A      2.464942   228A      2.478050  
     229A      2.499617   230A      2.513385   231A      2.531785  
     232A      2.548538   233A      2.570195   234A      2.584820  
     235A      2.631080   236A      2.642959   237A      2.667264  
     238A      2.702763   239A      2.718624   240A      2.733013  
     241A      2.826807   242A      2.827654   243A      2.834707  
     244A      2.869553   245A      2.889764   246A      2.901543  
     247A      2.918563   248A      2.944901   249A      2.999195  
     250A      3.027806   251A      3.055311   252A      3.089582  
     253A      3.092440   254A      3.122703   255A      3.139772  
     256A      3.181728   257A      3.189011   258A      3.222030  
     259A      3.253901   260A      3.288967   261A      3.297913  
     262A      3.355535   263A      3.380219   264A      3.395372  
     265A      3.423254   266A      3.448057   267A      3.486919  
     268A      3.497246   269A      3.520764   270A      3.633349  
     271A      3.666713   272A      3.686295   273A      3.735376  
     274A      3.769857   275A      3.850931   276A      3.889250  
     277A      3.964146   278A      4.035296   279A      4.094526  
     280A      4.209312   281A      4.243849   282A      4.448202  
     283A      4.463032   284A      4.658212   285A      4.707815  
     286A      4.749685   287A      4.810552   288A      4.994633  
     289A      5.076582   290A      5.241213   291A      5.531019  
     292A      5.668739   293A      5.826611   294A      6.106479  
     295A      6.318065   296A      6.708151   297A      6.967652  
     298A     18.110933   299A     18.647620   300A     19.373333  
     301A     25.245352   302A     25.704742  

    Final Occupation by Irrep:
              A 
    DOCC [    18 ]

  @DF-RHF Final Energy:  -224.76243506045617

   => Energetics <=

    Nuclear Repulsion Energy =            166.6286027509455323
    One-Electron Energy =                -633.5084732793550302
    Two-Electron Energy =                 242.1174354679532996
    Total Energy =                       -224.7624350604561698

Computation Completed


Properties will be evaluated at   0.000000,   0.000000,   0.000000 [a0]

Properties computed using the SCF density matrix

  Nuclear Dipole Moment: [e a0]
     X:  -951.5812      Y:   315.9527      Z:   934.7925

  Electronic Dipole Moment: [e a0]
     X:   951.8722      Y:  -316.5167      Z:  -935.4956

  Dipole Moment: [e a0]
     X:     0.2909      Y:    -0.5640      Z:    -0.7031     Total:     0.9472

  Dipole Moment: [D]
     X:     0.7394      Y:    -1.4336      Z:    -1.7871     Total:     2.4074


*** tstop() called on ds1 at Mon Oct  4 15:38:08 2021
Module time:
	user time   =      15.64 seconds =       0.26 minutes
	system time =       0.32 seconds =       0.01 minutes
	total time  =          3 seconds =       0.05 minutes
Total time:
	user time   =      54.02 seconds =       0.90 minutes
	system time =       1.23 seconds =       0.02 minutes
	total time  =         11 seconds =       0.18 minutes
  Constructing Basis Sets for SAPT...

   => Loading Basis Set <=

    Name: (AUG-CC-PVDZ AUX)
    Role: RIFIT
    Keyword: DF_BASIS_SAPT
    atoms 1-2, 10-11 entry N          line   158 file /theoryfs2/ds/csargent/miniconda3/envs/cle/share/psi4/basis/aug-cc-pvdz-ri.gbs 
    atoms 3-6, 12-15 entry H          line    30 file /theoryfs2/ds/csargent/miniconda3/envs/cle/share/psi4/basis/aug-cc-pvdz-ri.gbs 
    atoms 7-9, 16-18 entry C          line   112 file /theoryfs2/ds/csargent/miniconda3/envs/cle/share/psi4/basis/aug-cc-pvdz-ri.gbs 


  //>>>>>>>>>>>>>>>>>>>>>>>>>>>>>>>>>>>//
  //               SAPT0               //
  //<<<<<<<<<<<<<<<<<<<<<<<<<<<<<<<<<<<//


*** tstart() called on ds1
*** at Mon Oct  4 15:38:09 2021

        SAPT0  
    Ed Hohenstein
     6 June 2009

      Orbital Information
  --------------------------
    NSO        =       302
    NMO        =       302
    NRI        =       904
    NOCC A     =        18
    NOCC B     =        18
    FOCC A     =         5
    FOCC B     =         5
    NVIR A     =       284
    NVIR B     =       284

    Elst10,r            =     0.000010666595 [Eh]
    Exch10              =     0.000000000000 [Eh]
    Exch10 (S^2)        =     0.000000000000 [Eh]

    Iter     Energy [mEh]          dE [mEh]         Residual      Time [s]
       1      -0.00000963       0.000009626       0.033839701             1
       2      -0.00000884      -0.000000789       0.008377394             1
       3      -0.00000961       0.000000778       0.003641683             1
       4      -0.00000980       0.000000185       0.000864957             1
       5      -0.00000977      -0.000000028       0.000502496             1
       6      -0.00000976      -0.000000010       0.000168180             1
       7      -0.00000977       0.000000004       0.000062358             1
       8      -0.00000977       0.000000001       0.000018671             1
       9      -0.00000977      -0.000000000       0.000006744             2
      10      -0.00000977      -0.000000000       0.000001465             2
      11      -0.00000977       0.000000000       0.000000474             2

    CHF Iterations converged


    Iter     Energy [mEh]          dE [mEh]         Residual      Time [s]
       1      -0.00001123       0.000011233       0.038502093             0
       2      -0.00001028      -0.000000953       0.008857198             0
       3      -0.00001136       0.000001083       0.002996067             0
       4      -0.00001146       0.000000093       0.000955444             0
       5      -0.00001143      -0.000000027       0.000485431             0
       6      -0.00001142      -0.000000009       0.000169418             1
       7      -0.00001142       0.000000003       0.000079400             1
       8      -0.00001142       0.000000002       0.000024693             1
       9      -0.00001142      -0.000000000       0.000009965             1
      10      -0.00001142      -0.000000000       0.000002591             1
      11      -0.00001142       0.000000000       0.000000909             1

    CHF Iterations converged

    Ind20,r (A<-B)      =    -0.000000009767 [Eh]
    Ind20,r (B<-A)      =    -0.000000011424 [Eh]
    Ind20,r             =    -0.000000021191 [Eh]
    Exch-Ind20,r (A<-B) =     0.000000000000 [Eh]
    Exch-Ind20,r (B<-A) =     0.000000000000 [Eh]
    Exch-Ind20,r        =     0.000000000000 [Eh]
    Disp20              =    -0.000000243929 [Eh]
    Disp20 (SS)         =    -0.000000121964 [Eh]
    Disp20 (OS)         =    -0.000000121964 [Eh]
    Exch-Disp20         =     0.000000000000 [Eh]
    Exch-Disp20 (SS)    =     0.000000000000 [Eh]
    Exch-Disp20 (OS)    =     0.000000000000 [Eh]

    SAPT Results 
  --------------------------------------------------------------------------------------------------------
    Electrostatics                  0.01066659 [mEh]       0.00669339 [kcal/mol]       0.02800514 [kJ/mol]
      Elst10,r                      0.01066659 [mEh]       0.00669339 [kcal/mol]       0.02800514 [kJ/mol]

    Exchange                        0.00000000 [mEh]       0.00000000 [kcal/mol]       0.00000000 [kJ/mol]
      Exch10                        0.00000000 [mEh]       0.00000000 [kcal/mol]       0.00000000 [kJ/mol]
      Exch10(S^2)                   0.00000000 [mEh]       0.00000000 [kcal/mol]       0.00000000 [kJ/mol]

    Induction                       0.00004739 [mEh]       0.00002974 [kcal/mol]       0.00012443 [kJ/mol]
      Ind20,r                      -0.00002119 [mEh]      -0.00001330 [kcal/mol]      -0.00005564 [kJ/mol]
      Exch-Ind20,r                  0.00000000 [mEh]       0.00000000 [kcal/mol]       0.00000000 [kJ/mol]
      delta HF,r (2)                0.00006858 [mEh]       0.00004304 [kcal/mol]       0.00018007 [kJ/mol]

    Dispersion                     -0.00024393 [mEh]      -0.00015307 [kcal/mol]      -0.00064044 [kJ/mol]
      Disp20                       -0.00024393 [mEh]      -0.00015307 [kcal/mol]      -0.00064044 [kJ/mol]
      Exch-Disp20                   0.00000000 [mEh]       0.00000000 [kcal/mol]       0.00000000 [kJ/mol]
      Disp20 (SS)                  -0.00012196 [mEh]      -0.00007653 [kcal/mol]      -0.00032022 [kJ/mol]
      Disp20 (OS)                  -0.00012196 [mEh]      -0.00007653 [kcal/mol]      -0.00032022 [kJ/mol]
      Exch-Disp20 (SS)              0.00000000 [mEh]       0.00000000 [kcal/mol]       0.00000000 [kJ/mol]
      Exch-Disp20 (OS)              0.00000000 [mEh]       0.00000000 [kcal/mol]       0.00000000 [kJ/mol]

  Total HF                          0.01071399 [mEh]       0.00672313 [kcal/mol]       0.02812957 [kJ/mol]
  Total SAPT0                       0.01047006 [mEh]       0.00657006 [kcal/mol]       0.02748914 [kJ/mol]

  Special recipe for scaled SAPT0 (see Manual):
    Electrostatics sSAPT0           0.01066659 [mEh]       0.00669339 [kcal/mol]       0.02800514 [kJ/mol]
    Exchange sSAPT0                 0.00000000 [mEh]       0.00000000 [kcal/mol]       0.00000000 [kJ/mol]
    Induction sSAPT0                0.00004739 [mEh]       0.00002974 [kcal/mol]       0.00012443 [kJ/mol]
    Dispersion sSAPT0              -0.00024393 [mEh]      -0.00015307 [kcal/mol]      -0.00064044 [kJ/mol]
  Total sSAPT0                      0.01047006 [mEh]       0.00657006 [kcal/mol]       0.02748914 [kJ/mol]
  --------------------------------------------------------------------------------------------------------

*** tstop() called on ds1 at Mon Oct  4 15:38:18 2021
Module time:
	user time   =      43.63 seconds =       0.73 minutes
	system time =       3.74 seconds =       0.06 minutes
	total time  =          9 seconds =       0.15 minutes
Total time:
	user time   =      98.19 seconds =       1.64 minutes
	system time =       4.99 seconds =       0.08 minutes
	total time  =         21 seconds =       0.35 minutes


Warning! sapt0 does not have an associated derived wavefunction.The returned wavefunction is the dimer SCF wavefunction.


    Psi4 stopped on: Monday, 04 October 2021 03:38PM
    Psi4 wall time for execution: 0:00:21.06

*** Psi4 exiting successfully. Buy a developer a beer!
