
    -----------------------------------------------------------------------
          Psi4: An Open-Source Ab Initio Electronic Structure Package
                               Psi4 1.4rc3 

                         Git: Rev {HEAD} 080dba6 


    D. G. A. Smith, L. A. Burns, A. C. Simmonett, R. M. Parrish,
    M. C. Schieber, R. Galvelis, P. Kraus, H. Kruse, R. Di Remigio,
    A. Alenaizan, A. M. James, S. Lehtola, J. P. Misiewicz, M. Scheurer,
    R. A. Shaw, J. B. Schriber, Y. Xie, Z. L. Glick, D. A. Sirianni,
    J. S. O'Brien, J. M. Waldrop, A. Kumar, E. G. Hohenstein,
    B. P. Pritchard, B. R. Brooks, H. F. Schaefer III, A. Yu. Sokolov,
    K. Patkowski, A. E. DePrince III, U. Bozkaya, R. A. King,
    F. A. Evangelista, J. M. Turney, T. D. Crawford, C. D. Sherrill,
    J. Chem. Phys. 152(18) 184108 (2020). https://doi.org/10.1063/5.0006002

                            Additional Code Authors
    E. T. Seidl, C. L. Janssen, E. F. Valeev, M. L. Leininger,
    J. F. Gonthier, R. M. Richard, H. R. McAlexander, M. Saitow, X. Wang,
    P. Verma, and M. H. Lechner

             Previous Authors, Complete List of Code Contributors,
                       and Citations for Specific Modules
    https://github.com/psi4/psi4/blob/master/codemeta.json
    https://github.com/psi4/psi4/graphs/contributors
    http://psicode.org/psi4manual/master/introduction.html#citing-psifour

    -----------------------------------------------------------------------


    Psi4 started on: Monday, 04 October 2021 03:01PM

    Process ID: 11945
    Host:       ds1
    PSIDATADIR: /theoryfs2/ds/csargent/miniconda3/envs/cle/share/psi4
    Memory:     500.0 MiB
    Threads:    6
    
  ==> Input File <==

--------------------------------------------------------------------------
# PSI4 file produced by CrystaLattE

# Generated from:               pyrazole.xyz
# Psithon input for N-mer:      2mer-0+525
# Number of atoms per monomer:  [9, 9]
# Number of replicas:           1
# COM priority:                 1.227362128929e-05
# Minimum COM separations:      22.941 
# Separation priority:          1.931363430906e-05
# Minimum monomer separations:  19.723 
# Cutoff priority:              5.181855984082e-07
# Nuclear repulsion energy:     363.14395154346914

memory 7 GB

molecule Dimer_0_525 {
  N            6.27981210      -4.25303372       0.19313865 
  N            6.06870777      -2.28125697       1.80544317 
  H            3.66871156      -5.64628941      -1.96684001 
  H            0.69034521      -2.37545694      -0.42864236 
  H            3.35917442       0.17650601       3.09265017 
  H            7.35266782      -1.99461311       2.90680702 
  C            3.77952586      -1.21508453       1.76858172 
  C            2.38242998      -2.55505538       0.04607681 
  C            4.01771468      -4.38410490      -0.88761863 
--
  N          -12.67871861     -14.18732502     -36.80948693 
  N          -12.55985635     -16.22523205     -38.34666065 
  H          -10.00555588     -11.78641505     -36.09145658 
  H           -7.11091932     -14.22895380     -38.84659408 
  H          -10.04734339     -17.94200281     -40.75123039 
  H          -14.02226457     -17.03520911     -38.73242598 
  C          -10.27701995     -16.55540772     -39.37570950 
  C           -8.79402751     -14.62573551     -38.48578703 
  C          -10.35533284     -13.24056769     -36.89408908 
units = au
no_com
no_reorient
}

set {
  e_convergence 10
  d_convergence 10
  scf_type df
  mp2_type df
  cc_type df
  freeze_core true
}

energy('sapt0/aug-cc-pvdz')

--------------------------------------------------------------------------

  Memory set to   6.519 GiB by Python driver.

Scratch directory: /scratch/csargent/psi4.7158.66302/

Scratch directory: /scratch/csargent/psi4.7158.66302/

  //>>>>>>>>>>>>>>>>>>>>>>>>>>>>>>>>>>>//
  //              Dimer HF             //
  //<<<<<<<<<<<<<<<<<<<<<<<<<<<<<<<<<<<//


*** tstart() called on ds1
*** at Mon Oct  4 15:01:03 2021

   => Loading Basis Set <=

    Name: AUG-CC-PVDZ
    Role: ORBITAL
    Keyword: BASIS
    atoms 1-2, 10-11 entry N          line   218 file /theoryfs2/ds/csargent/miniconda3/envs/cle/share/psi4/basis/aug-cc-pvdz.gbs 
    atoms 3-6, 12-15 entry H          line    40 file /theoryfs2/ds/csargent/miniconda3/envs/cle/share/psi4/basis/aug-cc-pvdz.gbs 
    atoms 7-9, 16-18 entry C          line   182 file /theoryfs2/ds/csargent/miniconda3/envs/cle/share/psi4/basis/aug-cc-pvdz.gbs 


         ---------------------------------------------------------
                                   SCF
               by Justin Turney, Rob Parrish, Andy Simmonett
                          and Daniel G. A. Smith
                              RHF Reference
                        6 Threads,   6675 MiB Core
         ---------------------------------------------------------

  ==> Geometry <==

    Molecular point group: c1
    Full point group: C1

    Geometry (in Bohr), charge = 0, multiplicity = 1:

       Center              X                  Y                   Z               Mass       
    ------------   -----------------  -----------------  -----------------  -----------------
         N            6.279812100000    -4.253033720000     0.193138650000    14.003074004430
         N            6.068707770000    -2.281256970000     1.805443170000    14.003074004430
         H            3.668711560000    -5.646289410000    -1.966840010000     1.007825032230
         H            0.690345210000    -2.375456940000    -0.428642360000     1.007825032230
         H            3.359174420000     0.176506010000     3.092650170000     1.007825032230
         H            7.352667820000    -1.994613110000     2.906807020000     1.007825032230
         C            3.779525860000    -1.215084530000     1.768581720000    12.000000000000
         C            2.382429980000    -2.555055380000     0.046076810000    12.000000000000
         C            4.017714680000    -4.384104900000    -0.887618630000    12.000000000000
         N          -12.678718610000   -14.187325020000   -36.809486930000    14.003074004430
         N          -12.559856350000   -16.225232050000   -38.346660650000    14.003074004430
         H          -10.005555880000   -11.786415050000   -36.091456580000     1.007825032230
         H           -7.110919320000   -14.228953800000   -38.846594080000     1.007825032230
         H          -10.047343390000   -17.942002810000   -40.751230390000     1.007825032230
         H          -14.022264570000   -17.035209110000   -38.732425980000     1.007825032230
         C          -10.277019950000   -16.555407720000   -39.375709500000    12.000000000000
         C           -8.794027510000   -14.625735510000   -38.485787030000    12.000000000000
         C          -10.355332840000   -13.240567690000   -36.894089080000    12.000000000000

  Running in c1 symmetry.

  Rotational constants: A =      0.02471  B =      0.00049  C =      0.00048 [cm^-1]
  Rotational constants: A =    740.90370  B =     14.76808  C =     14.51060 [MHz]
  Nuclear repulsion =  363.143951523677799

  Charge       = 0
  Multiplicity = 1
  Electrons    = 72
  Nalpha       = 36
  Nbeta        = 36

  ==> Algorithm <==

  SCF Algorithm Type is DF.
  DIIS enabled.
  MOM disabled.
  Fractional occupation disabled.
  Guess Type is SAD.
  Energy threshold   = 1.00e-10
  Density threshold  = 1.00e-10
  Integral threshold = 1.00e-12

  ==> Primary Basis <==

  Basis Set: AUG-CC-PVDZ
    Blend: AUG-CC-PVDZ
    Number of shells: 130
    Number of basis functions: 302
    Number of Cartesian functions: 322
    Spherical Harmonics?: true
    Max angular momentum: 2

   => Loading Basis Set <=

    Name: (AUG-CC-PVDZ AUX)
    Role: JKFIT
    Keyword: DF_BASIS_SCF
    atoms 1-2, 10-11 entry N          line   212 file /theoryfs2/ds/csargent/miniconda3/envs/cle/share/psi4/basis/aug-cc-pvdz-jkfit.gbs 
    atoms 3-6, 12-15 entry H          line    70 file /theoryfs2/ds/csargent/miniconda3/envs/cle/share/psi4/basis/aug-cc-pvdz-jkfit.gbs 
    atoms 7-9, 16-18 entry C          line   154 file /theoryfs2/ds/csargent/miniconda3/envs/cle/share/psi4/basis/aug-cc-pvdz-jkfit.gbs 

  ==> Integral Setup <==

  ==> DiskDFJK: Density-Fitted J/K Matrices <==

    J tasked:                  Yes
    K tasked:                  Yes
    wK tasked:                  No
    OpenMP threads:              6
    Integrals threads:           6
    Memory [MiB]:             5006
    Algorithm:                Core
    Integral Cache:           SAVE
    Schwarz Cutoff:          1E-12
    Fitting Condition:       1E-10

   => Auxiliary Basis Set <=

  Basis Set: (AUG-CC-PVDZ AUX)
    Blend: AUG-CC-PVDZ-JKFIT
    Number of shells: 376
    Number of basis functions: 1116
    Number of Cartesian functions: 1290
    Spherical Harmonics?: true
    Max angular momentum: 3

  Minimum eigenvalue in the overlap matrix is 3.0324469273E-05.
  Reciprocal condition number of the overlap matrix is 2.4867199353E-06.
    Using symmetric orthogonalization.

  ==> Pre-Iterations <==

  SCF Guess: Superposition of Atomic Densities via on-the-fly atomic UHF (no occupation information).

   -------------------------
    Irrep   Nso     Nmo    
   -------------------------
     A        302     302 
   -------------------------
    Total     302     302
   -------------------------

  ==> Iterations <==

                           Total Energy        Delta E     RMS |[F,P]|

   @DF-RHF iter SAD:  -449.44445655698138   -4.49444e+02   0.00000e+00 
   @DF-RHF iter   1:  -449.27103089744946    1.73426e-01   2.12824e-03 DIIS
   @DF-RHF iter   2:  -449.47975613393061   -2.08725e-01   9.74001e-04 DIIS
   @DF-RHF iter   3:  -449.52160493291603   -4.18488e-02   2.10287e-04 DIIS
   @DF-RHF iter   4:  -449.52437521553668   -2.77028e-03   8.56735e-05 DIIS
   @DF-RHF iter   5:  -449.52473246496925   -3.57249e-04   1.69488e-05 DIIS
   @DF-RHF iter   6:  -449.52476636212242   -3.38972e-05   7.02238e-06 DIIS
   @DF-RHF iter   7:  -449.52477426755570   -7.90543e-06   3.09057e-06 DIIS
   @DF-RHF iter   8:  -449.52477578706072   -1.51951e-06   1.43761e-06 DIIS
   @DF-RHF iter   9:  -449.52477612186743   -3.34807e-07   4.00553e-07 DIIS
   @DF-RHF iter  10:  -449.52477613948759   -1.76202e-08   1.21025e-07 DIIS
   @DF-RHF iter  11:  -449.52477614086683   -1.37925e-09   2.82290e-08 DIIS
   @DF-RHF iter  12:  -449.52477614095869   -9.18590e-11   8.21033e-09 DIIS
   @DF-RHF iter  13:  -449.52477614096733   -8.64020e-12   4.00032e-09 DIIS
   @DF-RHF iter  14:  -449.52477614096875   -1.42109e-12   1.37846e-09 DIIS
   @DF-RHF iter  15:  -449.52477614096966   -9.09495e-13   5.87581e-10 DIIS
   @DF-RHF iter  16:  -449.52477614096989   -2.27374e-13   1.78918e-10 DIIS
   @DF-RHF iter  17:  -449.52477614096881    1.08002e-12   6.41432e-11 DIIS
  Energy and wave function converged.


  ==> Post-Iterations <==

    Orbital Energies [Eh]
    ---------------------

    Doubly Occupied:                                                      

       1A    -15.636021     2A    -15.635896     3A    -15.592078  
       4A    -15.591983     5A    -11.279687     6A    -11.279563  
       7A    -11.237543     8A    -11.237447     9A    -11.209662  
      10A    -11.209550    11A     -1.386789    12A     -1.386595  
      13A     -1.121681    14A     -1.121573    15A     -1.066710  
      16A     -1.066564    17A     -0.872543    18A     -0.872433  
      19A     -0.836821    20A     -0.836723    21A     -0.757056  
      22A     -0.756962    23A     -0.645529    24A     -0.645411  
      25A     -0.620609    26A     -0.620494    27A     -0.608964  
      28A     -0.608813    29A     -0.583688    30A     -0.583585  
      31A     -0.461203    32A     -0.461077    33A     -0.370499  
      34A     -0.370387    35A     -0.345838    36A     -0.345715  

    Virtual:                                                              

      37A      0.030965    38A      0.031056    39A      0.042629  
      40A      0.042790    41A      0.049362    42A      0.049484  
      43A      0.063739    44A      0.063877    45A      0.101210  
      46A      0.101307    47A      0.104242    48A      0.104361  
      49A      0.117418    50A      0.117542    51A      0.126491  
      52A      0.126595    53A      0.133285    54A      0.133406  
      55A      0.138643    56A      0.138774    57A      0.141721  
      58A      0.141864    59A      0.157131    60A      0.157265  
      61A      0.164835    62A      0.164976    63A      0.171293  
      64A      0.171400    65A      0.178626    66A      0.178760  
      67A      0.196236    68A      0.196338    69A      0.205009  
      70A      0.205106    71A      0.206369    72A      0.206478  
      73A      0.240455    74A      0.240573    75A      0.243840  
      76A      0.243950    77A      0.245174    78A      0.245294  
      79A      0.271347    80A      0.271454    81A      0.279290  
      82A      0.279393    83A      0.301231    84A      0.301349  
      85A      0.325353    86A      0.325470    87A      0.352570  
      88A      0.352687    89A      0.355583    90A      0.355710  
      91A      0.375127    92A      0.375241    93A      0.396277  
      94A      0.396391    95A      0.402960    96A      0.403072  
      97A      0.415244    98A      0.415372    99A      0.432343  
     100A      0.432460   101A      0.443591   102A      0.443725  
     103A      0.453625   104A      0.453721   105A      0.460034  
     106A      0.460158   107A      0.478868   108A      0.478979  
     109A      0.498760   110A      0.498886   111A      0.508911  
     112A      0.509032   113A      0.522171   114A      0.522250  
     115A      0.541791   116A      0.541903   117A      0.574640  
     118A      0.574759   119A      0.586538   120A      0.586651  
     121A      0.590767   122A      0.590878   123A      0.602650  
     124A      0.602744   125A      0.621196   126A      0.621294  
     127A      0.646332   128A      0.646451   129A      0.655530  
     130A      0.655646   131A      0.676388   132A      0.676502  
     133A      0.698260   134A      0.698384   135A      0.700601  
     136A      0.700728   137A      0.721865   138A      0.722002  
     139A      0.725340   140A      0.725452   141A      0.747933  
     142A      0.748044   143A      0.758863   144A      0.758933  
     145A      0.773519   146A      0.773657   147A      0.781688  
     148A      0.781806   149A      0.828726   150A      0.828839  
     151A      0.838453   152A      0.838562   153A      0.848601  
     154A      0.848734   155A      0.881621   156A      0.881740  
     157A      0.888981   158A      0.889104   159A      0.907168  
     160A      0.907288   161A      0.925015   162A      0.925143  
     163A      0.942815   164A      0.942915   165A      0.978424  
     166A      0.978564   167A      0.985071   168A      0.985186  
     169A      1.011379   170A      1.011475   171A      1.046831  
     172A      1.046927   173A      1.066723   174A      1.066841  
     175A      1.101064   176A      1.101175   177A      1.128317  
     178A      1.128397   179A      1.134366   180A      1.134526  
     181A      1.150459   182A      1.150573   183A      1.175387  
     184A      1.175509   185A      1.220751   186A      1.220879  
     187A      1.269790   188A      1.269891   189A      1.303603  
     190A      1.303672   191A      1.311642   192A      1.311726  
     193A      1.366015   194A      1.366138   195A      1.401261  
     196A      1.401386   197A      1.474916   198A      1.475014  
     199A      1.512233   200A      1.512354   201A      1.526355  
     202A      1.526467   203A      1.561195   204A      1.561327  
     205A      1.591109   206A      1.591220   207A      1.608899  
     208A      1.609008   209A      1.637657   210A      1.637782  
     211A      1.669715   212A      1.669813   213A      1.703851  
     214A      1.703966   215A      1.724172   216A      1.724282  
     217A      1.749466   218A      1.749551   219A      1.764584  
     220A      1.764707   221A      1.805242   222A      1.805383  
     223A      1.875805   224A      1.875966   225A      1.932622  
     226A      1.932724   227A      1.943785   228A      1.943902  
     229A      1.988358   230A      1.988408   231A      2.021669  
     232A      2.021779   233A      2.057879   234A      2.057947  
     235A      2.089026   236A      2.089170   237A      2.144924  
     238A      2.145020   239A      2.190217   240A      2.190341  
     241A      2.201048   242A      2.201167   243A      2.230668  
     244A      2.230787   245A      2.276053   246A      2.276170  
     247A      2.307852   248A      2.307972   249A      2.360864  
     250A      2.361054   251A      2.389335   252A      2.389461  
     253A      2.393966   254A      2.394140   255A      2.435410  
     256A      2.435570   257A      2.465150   258A      2.465287  
     259A      2.532001   260A      2.532130   261A      2.570410  
     262A      2.570565   263A      2.585030   264A      2.585038  
     265A      2.643173   266A      2.643290   267A      2.733227  
     268A      2.733357   269A      2.827022   270A      2.827171  
     271A      2.834923   272A      2.835084   273A      2.901755  
     274A      2.901914   275A      2.918774   276A      2.918922  
     277A      2.999412   278A      2.999491   279A      3.055524  
     280A      3.055652   281A      3.092652   282A      3.092686  
     283A      3.122918   284A      3.123062   285A      3.189228  
     286A      3.189267   287A      3.222247   288A      3.222344  
     289A      3.298127   290A      3.298198   291A      3.380439  
     292A      3.380573   293A      3.520977   294A      3.521056  
     295A      3.686514   296A      3.686902   297A      3.889461  
     298A      3.889652   299A      4.209525   300A      4.209757  
     301A      4.463252   302A      4.463576  

    Final Occupation by Irrep:
              A 
    DOCC [    36 ]

  @DF-RHF Final Energy:  -449.52477614096881

   => Energetics <=

    Nuclear Repulsion Energy =            363.1439515236777993
    One-Electron Energy =               -1326.8100733682883856
    Two-Electron Energy =                 514.1413457036418322
    Total Energy =                       -449.5247761409688110

Computation Completed


Properties will be evaluated at   0.000000,   0.000000,   0.000000 [a0]

Properties computed using the SCF density matrix

  Nuclear Dipole Moment: [e a0]
     X:  -231.8258      Y:  -644.9161      Z: -1345.8920

  Electronic Dipole Moment: [e a0]
     X:   231.7139      Y:   644.9836      Z:  1345.7681

  Dipole Moment: [e a0]
     X:    -0.1119      Y:     0.0675      Z:    -0.1238     Total:     0.1800

  Dipole Moment: [D]
     X:    -0.2844      Y:     0.1716      Z:    -0.3147     Total:     0.4576


*** tstop() called on ds1 at Mon Oct  4 15:01:08 2021
Module time:
	user time   =      21.85 seconds =       0.36 minutes
	system time =       0.58 seconds =       0.01 minutes
	total time  =          5 seconds =       0.08 minutes
Total time:
	user time   =      21.85 seconds =       0.36 minutes
	system time =       0.58 seconds =       0.01 minutes
	total time  =          5 seconds =       0.08 minutes

  //>>>>>>>>>>>>>>>>>>>>>>>>>>>>>>>>>>>//
  //            Monomer A HF           //
  //<<<<<<<<<<<<<<<<<<<<<<<<<<<<<<<<<<<//


*** tstart() called on ds1
*** at Mon Oct  4 15:01:08 2021

   => Loading Basis Set <=

    Name: AUG-CC-PVDZ
    Role: ORBITAL
    Keyword: BASIS
    atoms 1-2, 10-11 entry N          line   218 file /theoryfs2/ds/csargent/miniconda3/envs/cle/share/psi4/basis/aug-cc-pvdz.gbs 
    atoms 3-6, 12-15 entry H          line    40 file /theoryfs2/ds/csargent/miniconda3/envs/cle/share/psi4/basis/aug-cc-pvdz.gbs 
    atoms 7-9, 16-18 entry C          line   182 file /theoryfs2/ds/csargent/miniconda3/envs/cle/share/psi4/basis/aug-cc-pvdz.gbs 


         ---------------------------------------------------------
                                   SCF
               by Justin Turney, Rob Parrish, Andy Simmonett
                          and Daniel G. A. Smith
                              RHF Reference
                        6 Threads,   6675 MiB Core
         ---------------------------------------------------------

  ==> Geometry <==

    Molecular point group: c1
    Full point group: C1

    Geometry (in Bohr), charge = 0, multiplicity = 1:

       Center              X                  Y                   Z               Mass       
    ------------   -----------------  -----------------  -----------------  -----------------
         N            6.279812100000    -4.253033720000     0.193138650000    14.003074004430
         N            6.068707770000    -2.281256970000     1.805443170000    14.003074004430
         H            3.668711560000    -5.646289410000    -1.966840010000     1.007825032230
         H            0.690345210000    -2.375456940000    -0.428642360000     1.007825032230
         H            3.359174420000     0.176506010000     3.092650170000     1.007825032230
         H            7.352667820000    -1.994613110000     2.906807020000     1.007825032230
         C            3.779525860000    -1.215084530000     1.768581720000    12.000000000000
         C            2.382429980000    -2.555055380000     0.046076810000    12.000000000000
         C            4.017714680000    -4.384104900000    -0.887618630000    12.000000000000
      Gh(N)         -12.678718610000   -14.187325020000   -36.809486930000    14.003074004430
      Gh(N)         -12.559856350000   -16.225232050000   -38.346660650000    14.003074004430
      Gh(H)         -10.005555880000   -11.786415050000   -36.091456580000     1.007825032230
      Gh(H)          -7.110919320000   -14.228953800000   -38.846594080000     1.007825032230
      Gh(H)         -10.047343390000   -17.942002810000   -40.751230390000     1.007825032230
      Gh(H)         -14.022264570000   -17.035209110000   -38.732425980000     1.007825032230
      Gh(C)         -10.277019950000   -16.555407720000   -39.375709500000    12.000000000000
      Gh(C)          -8.794027510000   -14.625735510000   -38.485787030000    12.000000000000
      Gh(C)         -10.355332840000   -13.240567690000   -36.894089080000    12.000000000000

  Running in c1 symmetry.

  Rotational constants: A =      0.02471  B =      0.00049  C =      0.00048 [cm^-1]
  Rotational constants: A =    740.90370  B =     14.76808  C =     14.51060 [MHz]
  Nuclear repulsion =  166.624056450327203

  Charge       = 0
  Multiplicity = 1
  Electrons    = 36
  Nalpha       = 18
  Nbeta        = 18

  ==> Algorithm <==

  SCF Algorithm Type is DF.
  DIIS enabled.
  MOM disabled.
  Fractional occupation disabled.
  Guess Type is SAD.
  Energy threshold   = 1.00e-10
  Density threshold  = 1.00e-10
  Integral threshold = 1.00e-12

  ==> Primary Basis <==

  Basis Set: AUG-CC-PVDZ
    Blend: AUG-CC-PVDZ
    Number of shells: 130
    Number of basis functions: 302
    Number of Cartesian functions: 322
    Spherical Harmonics?: true
    Max angular momentum: 2

   => Loading Basis Set <=

    Name: (AUG-CC-PVDZ AUX)
    Role: JKFIT
    Keyword: DF_BASIS_SCF
    atoms 1-2, 10-11 entry N          line   212 file /theoryfs2/ds/csargent/miniconda3/envs/cle/share/psi4/basis/aug-cc-pvdz-jkfit.gbs 
    atoms 3-6, 12-15 entry H          line    70 file /theoryfs2/ds/csargent/miniconda3/envs/cle/share/psi4/basis/aug-cc-pvdz-jkfit.gbs 
    atoms 7-9, 16-18 entry C          line   154 file /theoryfs2/ds/csargent/miniconda3/envs/cle/share/psi4/basis/aug-cc-pvdz-jkfit.gbs 

  ==> Integral Setup <==

  ==> DiskDFJK: Density-Fitted J/K Matrices <==

    J tasked:                  Yes
    K tasked:                  Yes
    wK tasked:                  No
    OpenMP threads:              6
    Integrals threads:           6
    Memory [MiB]:             5006
    Algorithm:                Core
    Integral Cache:           LOAD
    Schwarz Cutoff:          1E-12
    Fitting Condition:       1E-10

   => Auxiliary Basis Set <=

  Basis Set: (AUG-CC-PVDZ AUX)
    Blend: AUG-CC-PVDZ-JKFIT
    Number of shells: 376
    Number of basis functions: 1116
    Number of Cartesian functions: 1290
    Spherical Harmonics?: true
    Max angular momentum: 3

  Minimum eigenvalue in the overlap matrix is 3.0324469273E-05.
  Reciprocal condition number of the overlap matrix is 2.4867199353E-06.
    Using symmetric orthogonalization.

  ==> Pre-Iterations <==

  SCF Guess: Superposition of Atomic Densities via on-the-fly atomic UHF (no occupation information).

   -------------------------
    Irrep   Nso     Nmo    
   -------------------------
     A        302     302 
   -------------------------
    Total     302     302
   -------------------------

  ==> Iterations <==

                           Total Energy        Delta E     RMS |[F,P]|

   @DF-RHF iter SAD:  -224.72194801245041   -2.24722e+02   0.00000e+00 
   @DF-RHF iter   1:  -224.63549169954874    8.64563e-02   1.50472e-03 DIIS
   @DF-RHF iter   2:  -224.73984613222629   -1.04354e-01   6.88462e-04 DIIS
   @DF-RHF iter   3:  -224.76075487111865   -2.09087e-02   1.48626e-04 DIIS
   @DF-RHF iter   4:  -224.76213931488670   -1.38444e-03   6.05310e-05 DIIS
   @DF-RHF iter   5:  -224.76231766964332   -1.78355e-04   1.19893e-05 DIIS
   @DF-RHF iter   6:  -224.76233462711653   -1.69575e-05   4.96772e-06 DIIS
   @DF-RHF iter   7:  -224.76233858315337   -3.95604e-06   2.18806e-06 DIIS
   @DF-RHF iter   8:  -224.76233934389560   -7.60742e-07   1.01700e-06 DIIS
   @DF-RHF iter   9:  -224.76233951153782   -1.67642e-07   2.83302e-07 DIIS
   @DF-RHF iter  10:  -224.76233952035830   -8.82048e-09   8.55547e-08 DIIS
   @DF-RHF iter  11:  -224.76233952104806   -6.89766e-10   1.99714e-08 DIIS
   @DF-RHF iter  12:  -224.76233952109388   -4.58158e-11   5.81092e-09 DIIS
   @DF-RHF iter  13:  -224.76233952109811   -4.23483e-12   2.83097e-09 DIIS
   @DF-RHF iter  14:  -224.76233952109962   -1.50635e-12   9.75191e-10 DIIS
   @DF-RHF iter  15:  -224.76233952109925    3.69482e-13   4.15547e-10 DIIS
   @DF-RHF iter  16:  -224.76233952109968   -4.26326e-13   1.25998e-10 DIIS
   @DF-RHF iter  17:  -224.76233952109976   -8.52651e-14   4.47781e-11 DIIS
  Energy and wave function converged.


  ==> Post-Iterations <==

    Orbital Energies [Eh]
    ---------------------

    Doubly Occupied:                                                      

       1A    -15.636223     2A    -15.592313     3A    -11.279894  
       4A    -11.237784     5A    -11.209891     6A     -1.386922  
       7A     -1.121901     8A     -1.066898     9A     -0.872768  
      10A     -0.837061    11A     -0.757292    12A     -0.645746  
      13A     -0.620834    14A     -0.609140    15A     -0.583920  
      16A     -0.461404    17A     -0.370721    18A     -0.346048  

    Virtual:                                                              

      19A      0.022929    20A      0.030764    21A      0.040267  
      22A      0.042368    23A      0.044397    24A      0.049159  
      25A      0.063520    26A      0.066116    27A      0.084230  
      28A      0.090998    29A      0.099198    30A      0.100998  
      31A      0.104029    32A      0.117179    33A      0.118611  
      34A      0.126101    35A      0.126270    36A      0.128509  
      37A      0.133069    38A      0.133632    39A      0.134390  
      40A      0.138403    41A      0.141490    42A      0.156889  
      43A      0.158817    44A      0.164592    45A      0.166209  
      46A      0.171075    47A      0.178408    48A      0.179445  
      49A      0.195741    50A      0.196042    51A      0.201730  
      52A      0.204793    53A      0.206162    54A      0.223183  
      55A      0.225393    56A      0.228516    57A      0.235823  
      58A      0.240236    59A      0.243626    60A      0.244965  
      61A      0.264323    62A      0.271127    63A      0.271252  
      64A      0.279080    65A      0.301010    66A      0.322185  
      67A      0.325148    68A      0.340350    69A      0.352358  
      70A      0.355357    71A      0.366807    72A      0.373174  
      73A      0.374907    74A      0.383989    75A      0.396061  
      76A      0.402741    77A      0.414998    78A      0.427738  
      79A      0.432132    80A      0.432335    81A      0.441461  
      82A      0.442610    83A      0.443385    84A      0.453393  
      85A      0.456266    86A      0.457694    87A      0.459816  
      88A      0.462140    89A      0.478655    90A      0.498543  
      91A      0.508690    92A      0.509989    93A      0.519681  
      94A      0.521917    95A      0.533386    96A      0.538319  
      97A      0.541560    98A      0.559596    99A      0.569077  
     100A      0.572123   101A      0.574432   102A      0.586318  
     103A      0.590538   104A      0.595432   105A      0.602413  
     106A      0.613658   107A      0.620953   108A      0.621523  
     109A      0.633806   110A      0.646110   111A      0.655295  
     112A      0.676162   113A      0.691100   114A      0.698041  
     115A      0.700391   116A      0.708079   117A      0.719729  
     118A      0.721667   119A      0.725115   120A      0.735948  
     121A      0.745655   122A      0.747709   123A      0.758592  
     124A      0.773318   125A      0.781481   126A      0.789977  
     127A      0.798391   128A      0.814729   129A      0.821216  
     130A      0.828504   131A      0.838230   132A      0.848394  
     133A      0.852241   134A      0.855386   135A      0.871297  
     136A      0.881372   137A      0.881395   138A      0.888767  
     139A      0.895969   140A      0.906950   141A      0.916445  
     142A      0.924815   143A      0.942582   144A      0.952399  
     145A      0.978222   146A      0.984850   147A      0.997484  
     148A      1.011149   149A      1.024490   150A      1.030542  
     151A      1.046606   152A      1.051953   153A      1.066503  
     154A      1.071447   155A      1.081324   156A      1.100852  
     157A      1.108526   158A      1.128058   159A      1.134196  
     160A      1.150235   161A      1.159135   162A      1.166647  
     163A      1.175168   164A      1.185331   165A      1.220548  
     166A      1.222081   167A      1.237408   168A      1.268333  
     169A      1.269556   170A      1.294099   171A      1.303342  
     172A      1.311399   173A      1.315520   174A      1.341045  
     175A      1.365807   176A      1.382214   177A      1.401043  
     178A      1.435372   179A      1.445116   180A      1.474691  
     181A      1.493579   182A      1.507435   183A      1.512027  
     184A      1.526129   185A      1.560989   186A      1.590882  
     187A      1.608669   188A      1.637437   189A      1.669472  
     190A      1.677094   191A      1.689262   192A      1.703634  
     193A      1.723950   194A      1.749215   195A      1.764373  
     196A      1.805048   197A      1.875632   198A      1.932390  
     199A      1.943558   200A      1.988067   201A      2.021445  
     202A      2.041469   203A      2.057611   204A      2.088839  
     205A      2.109470   206A      2.135188   207A      2.144687  
     208A      2.168519   209A      2.190005   210A      2.200827  
     211A      2.217013   212A      2.230457   213A      2.234259  
     214A      2.262264   215A      2.275825   216A      2.278121  
     217A      2.289658   218A      2.307640   219A      2.336034  
     220A      2.360716   221A      2.380993   222A      2.389130  
     223A      2.393822   224A      2.394933   225A      2.435246  
     226A      2.444264   227A      2.464967   228A      2.478691  
     229A      2.500343   230A      2.514047   231A      2.531798  
     232A      2.549222   233A      2.570232   234A      2.584716  
     235A      2.631727   236A      2.642961   237A      2.667926  
     238A      2.703423   239A      2.719283   240A      2.733029  
     241A      2.826838   242A      2.828343   243A      2.834751  
     244A      2.870210   245A      2.890423   246A      2.901587  
     247A      2.918598   248A      2.945490   249A      2.999157  
     250A      3.028379   251A      3.055324   252A      3.090149  
     253A      3.092358   254A      3.122730   255A      3.140445  
     256A      3.182281   257A      3.188930   258A      3.222008  
     259A      3.254556   260A      3.289523   261A      3.297865  
     262A      3.356063   263A      3.380235   264A      3.396030  
     265A      3.423805   266A      3.448616   267A      3.487611  
     268A      3.497961   269A      3.520727   270A      3.634022  
     271A      3.667367   272A      3.686563   273A      3.736036  
     274A      3.770530   275A      3.851543   276A      3.889327  
     277A      3.964954   278A      4.036042   279A      4.095174  
     280A      4.209428   281A      4.244485   282A      4.448661  
     283A      4.463235   284A      4.658886   285A      4.708570  
     286A      4.750358   287A      4.811247   288A      4.995266  
     289A      5.077127   290A      5.241657   291A      5.531890  
     292A      5.669440   293A      5.827067   294A      6.107443  
     295A      6.318613   296A      6.707997   297A      6.967915  
     298A     18.111596   299A     18.648479   300A     19.374113  
     301A     25.245849   302A     25.705741  

    Final Occupation by Irrep:
              A 
    DOCC [    18 ]

  @DF-RHF Final Energy:  -224.76233952109976

   => Energetics <=

    Nuclear Repulsion Energy =            166.6240564503272026
    One-Electron Energy =                -633.4992733860099179
    Two-Electron Energy =                 242.1128774145829539
    Total Energy =                       -224.7623395210997614

Computation Completed


Properties will be evaluated at   0.000000,   0.000000,   0.000000 [a0]

Properties computed using the SCF density matrix

  Nuclear Dipole Moment: [e a0]
     X:   162.5886      Y:  -104.5054      Z:    23.1563

  Electronic Dipole Moment: [e a0]
     X:  -162.9913      Y:   105.1370      Z:   -22.5767

  Dipole Moment: [e a0]
     X:    -0.4027      Y:     0.6317      Z:     0.5796     Total:     0.9472

  Dipole Moment: [D]
     X:    -1.0235      Y:     1.6055      Z:     1.4733     Total:     2.4075


*** tstop() called on ds1 at Mon Oct  4 15:01:12 2021
Module time:
	user time   =      15.56 seconds =       0.26 minutes
	system time =       0.36 seconds =       0.01 minutes
	total time  =          4 seconds =       0.07 minutes
Total time:
	user time   =      37.60 seconds =       0.63 minutes
	system time =       0.94 seconds =       0.02 minutes
	total time  =          9 seconds =       0.15 minutes

  //>>>>>>>>>>>>>>>>>>>>>>>>>>>>>>>>>>>//
  //            Monomer B HF           //
  //<<<<<<<<<<<<<<<<<<<<<<<<<<<<<<<<<<<//


*** tstart() called on ds1
*** at Mon Oct  4 15:01:12 2021

   => Loading Basis Set <=

    Name: AUG-CC-PVDZ
    Role: ORBITAL
    Keyword: BASIS
    atoms 1-2, 10-11 entry N          line   218 file /theoryfs2/ds/csargent/miniconda3/envs/cle/share/psi4/basis/aug-cc-pvdz.gbs 
    atoms 3-6, 12-15 entry H          line    40 file /theoryfs2/ds/csargent/miniconda3/envs/cle/share/psi4/basis/aug-cc-pvdz.gbs 
    atoms 7-9, 16-18 entry C          line   182 file /theoryfs2/ds/csargent/miniconda3/envs/cle/share/psi4/basis/aug-cc-pvdz.gbs 


         ---------------------------------------------------------
                                   SCF
               by Justin Turney, Rob Parrish, Andy Simmonett
                          and Daniel G. A. Smith
                              RHF Reference
                        6 Threads,   6675 MiB Core
         ---------------------------------------------------------

  ==> Geometry <==

    Molecular point group: c1
    Full point group: C1

    Geometry (in Bohr), charge = 0, multiplicity = 1:

       Center              X                  Y                   Z               Mass       
    ------------   -----------------  -----------------  -----------------  -----------------
      Gh(N)           6.279812100000    -4.253033720000     0.193138650000    14.003074004430
      Gh(N)           6.068707770000    -2.281256970000     1.805443170000    14.003074004430
      Gh(H)           3.668711560000    -5.646289410000    -1.966840010000     1.007825032230
      Gh(H)           0.690345210000    -2.375456940000    -0.428642360000     1.007825032230
      Gh(H)           3.359174420000     0.176506010000     3.092650170000     1.007825032230
      Gh(H)           7.352667820000    -1.994613110000     2.906807020000     1.007825032230
      Gh(C)           3.779525860000    -1.215084530000     1.768581720000    12.000000000000
      Gh(C)           2.382429980000    -2.555055380000     0.046076810000    12.000000000000
      Gh(C)           4.017714680000    -4.384104900000    -0.887618630000    12.000000000000
         N          -12.678718610000   -14.187325020000   -36.809486930000    14.003074004430
         N          -12.559856350000   -16.225232050000   -38.346660650000    14.003074004430
         H          -10.005555880000   -11.786415050000   -36.091456580000     1.007825032230
         H           -7.110919320000   -14.228953800000   -38.846594080000     1.007825032230
         H          -10.047343390000   -17.942002810000   -40.751230390000     1.007825032230
         H          -14.022264570000   -17.035209110000   -38.732425980000     1.007825032230
         C          -10.277019950000   -16.555407720000   -39.375709500000    12.000000000000
         C           -8.794027510000   -14.625735510000   -38.485787030000    12.000000000000
         C          -10.355332840000   -13.240567690000   -36.894089080000    12.000000000000

  Running in c1 symmetry.

  Rotational constants: A =      0.02471  B =      0.00049  C =      0.00048 [cm^-1]
  Rotational constants: A =    740.90370  B =     14.76808  C =     14.51060 [MHz]
  Nuclear repulsion =  166.628602794674464

  Charge       = 0
  Multiplicity = 1
  Electrons    = 36
  Nalpha       = 18
  Nbeta        = 18

  ==> Algorithm <==

  SCF Algorithm Type is DF.
  DIIS enabled.
  MOM disabled.
  Fractional occupation disabled.
  Guess Type is SAD.
  Energy threshold   = 1.00e-10
  Density threshold  = 1.00e-10
  Integral threshold = 1.00e-12

  ==> Primary Basis <==

  Basis Set: AUG-CC-PVDZ
    Blend: AUG-CC-PVDZ
    Number of shells: 130
    Number of basis functions: 302
    Number of Cartesian functions: 322
    Spherical Harmonics?: true
    Max angular momentum: 2

   => Loading Basis Set <=

    Name: (AUG-CC-PVDZ AUX)
    Role: JKFIT
    Keyword: DF_BASIS_SCF
    atoms 1-2, 10-11 entry N          line   212 file /theoryfs2/ds/csargent/miniconda3/envs/cle/share/psi4/basis/aug-cc-pvdz-jkfit.gbs 
    atoms 3-6, 12-15 entry H          line    70 file /theoryfs2/ds/csargent/miniconda3/envs/cle/share/psi4/basis/aug-cc-pvdz-jkfit.gbs 
    atoms 7-9, 16-18 entry C          line   154 file /theoryfs2/ds/csargent/miniconda3/envs/cle/share/psi4/basis/aug-cc-pvdz-jkfit.gbs 

  ==> Integral Setup <==

  ==> DiskDFJK: Density-Fitted J/K Matrices <==

    J tasked:                  Yes
    K tasked:                  Yes
    wK tasked:                  No
    OpenMP threads:              6
    Integrals threads:           6
    Memory [MiB]:             5006
    Algorithm:                Core
    Integral Cache:           LOAD
    Schwarz Cutoff:          1E-12
    Fitting Condition:       1E-10

   => Auxiliary Basis Set <=

  Basis Set: (AUG-CC-PVDZ AUX)
    Blend: AUG-CC-PVDZ-JKFIT
    Number of shells: 376
    Number of basis functions: 1116
    Number of Cartesian functions: 1290
    Spherical Harmonics?: true
    Max angular momentum: 3

  Minimum eigenvalue in the overlap matrix is 3.0324469273E-05.
  Reciprocal condition number of the overlap matrix is 2.4867199353E-06.
    Using symmetric orthogonalization.

  ==> Pre-Iterations <==

  SCF Guess: Superposition of Atomic Densities via on-the-fly atomic UHF (no occupation information).

   -------------------------
    Irrep   Nso     Nmo    
   -------------------------
     A        302     302 
   -------------------------
    Total     302     302
   -------------------------

  ==> Iterations <==

                           Total Energy        Delta E     RMS |[F,P]|

   @DF-RHF iter SAD:  -224.72250854417771   -2.24723e+02   0.00000e+00 
   @DF-RHF iter   1:  -224.63556595909461    8.69426e-02   1.50490e-03 DIIS
   @DF-RHF iter   2:  -224.73993304683563   -1.04367e-01   6.88620e-04 DIIS
   @DF-RHF iter   3:  -224.76085080036523   -2.09178e-02   1.48614e-04 DIIS
   @DF-RHF iter   4:  -224.76223499902608   -1.38420e-03   6.05151e-05 DIIS
   @DF-RHF iter   5:  -224.76241324353003   -1.78245e-04   1.19848e-05 DIIS
   @DF-RHF iter   6:  -224.76243017667827   -1.69331e-05   4.96323e-06 DIIS
   @DF-RHF iter   7:  -224.76243412452129   -3.94784e-06   2.18627e-06 DIIS
   @DF-RHF iter   8:  -224.76243488406013   -7.59539e-07   1.01631e-06 DIIS
   @DF-RHF iter   9:  -224.76243505156489   -1.67505e-07   2.83280e-07 DIIS
   @DF-RHF iter  10:  -224.76243506038244   -8.81755e-09   8.55270e-08 DIIS
   @DF-RHF iter  11:  -224.76243506107173   -6.89283e-10   1.99678e-08 DIIS
   @DF-RHF iter  12:  -224.76243506111808   -4.63558e-11   5.80973e-09 DIIS
   @DF-RHF iter  13:  -224.76243506112206   -3.97904e-12   2.83582e-09 DIIS
   @DF-RHF iter  14:  -224.76243506112291   -8.52651e-13   9.79832e-10 DIIS
   @DF-RHF iter  15:  -224.76243506112303   -1.13687e-13   4.16538e-10 DIIS
   @DF-RHF iter  16:  -224.76243506112337   -3.41061e-13   1.25808e-10 DIIS
   @DF-RHF iter  17:  -224.76243506112320    1.70530e-13   4.47599e-11 DIIS
  Energy and wave function converged.


  ==> Post-Iterations <==

    Orbital Energies [Eh]
    ---------------------

    Doubly Occupied:                                                      

       1A    -15.636233     2A    -15.592291     3A    -11.279903  
       4A    -11.237759     5A    -11.209884     6A     -1.387001  
       7A     -1.121894     8A     -1.066928     9A     -0.872759  
      10A     -0.837039    11A     -0.757272    12A     -0.645745  
      13A     -0.620828    14A     -0.609177    15A     -0.583905  
      16A     -0.461413    17A     -0.370715    18A     -0.346055  

    Virtual:                                                              

      19A      0.023050    20A      0.030764    21A      0.040400  
      22A      0.042369    23A      0.044523    24A      0.049158  
      25A      0.063519    26A      0.066242    27A      0.084339  
      28A      0.091129    29A      0.099318    30A      0.101001  
      31A      0.104028    32A      0.117186    33A      0.118735  
      34A      0.126236    35A      0.126272    36A      0.128632  
      37A      0.133070    38A      0.133745    39A      0.134515  
      40A      0.138399    41A      0.141487    42A      0.156889  
      43A      0.158961    44A      0.164594    45A      0.166329  
      46A      0.171081    47A      0.178407    48A      0.179565  
      49A      0.195847    50A      0.196041    51A      0.201838  
      52A      0.204806    53A      0.206166    54A      0.223290  
      55A      0.225502    56A      0.228642    57A      0.235938  
      58A      0.240240    59A      0.243627    60A      0.244965  
      61A      0.264448    62A      0.271138    63A      0.271353  
      64A      0.279081    65A      0.301024    66A      0.322306  
      67A      0.325138    68A      0.340463    69A      0.352355  
      70A      0.355359    71A      0.366908    72A      0.373297  
      73A      0.374909    74A      0.384118    75A      0.396062  
      76A      0.402744    77A      0.415005    78A      0.427860  
      79A      0.432131    80A      0.432449    81A      0.441592  
      82A      0.442735    83A      0.443379    84A      0.453414  
      85A      0.456377    86A      0.457818    87A      0.459816  
      88A      0.462259    89A      0.478656    90A      0.498544  
      91A      0.508693    92A      0.510096    93A      0.519791  
      94A      0.521953    95A      0.533498    96A      0.538450  
      97A      0.541569    98A      0.559719    99A      0.569174  
     100A      0.572242   101A      0.574428   102A      0.586322  
     103A      0.590547   104A      0.595570   105A      0.602431  
     106A      0.613780   107A      0.620974   108A      0.621634  
     109A      0.633918   110A      0.646111   111A      0.655304  
     112A      0.676168   113A      0.691230   114A      0.698039  
     115A      0.700384   116A      0.708201   117A      0.719848  
     118A      0.721648   119A      0.725121   120A      0.736070  
     121A      0.745779   122A      0.747717   123A      0.758643  
     124A      0.773300   125A      0.781476   126A      0.790098  
     127A      0.798495   128A      0.814853   129A      0.821336  
     130A      0.828513   131A      0.838238   132A      0.848382  
     133A      0.852357   134A      0.855498   135A      0.871435  
     136A      0.881397   137A      0.881485   138A      0.888762  
     139A      0.896094   140A      0.906950   141A      0.916549  
     142A      0.924803   143A      0.942599   144A      0.952502  
     145A      0.978204   146A      0.984853   147A      0.997594  
     148A      1.011170   149A      1.024618   150A      1.030661  
     151A      1.046624   152A      1.052068   153A      1.066503  
     154A      1.071577   155A      1.081454   156A      1.100853  
     157A      1.108621   158A      1.128099   159A      1.134152  
     160A      1.150240   161A      1.159237   162A      1.166754  
     163A      1.175167   164A      1.185446   165A      1.220538  
     166A      1.222158   167A      1.237491   168A      1.268458  
     169A      1.269573   170A      1.294186   171A      1.303390  
     172A      1.311431   173A      1.315620   174A      1.341167  
     175A      1.365802   176A      1.382322   177A      1.401039  
     178A      1.435460   179A      1.445190   180A      1.474706  
     181A      1.493697   182A      1.507498   183A      1.512021  
     184A      1.526136   185A      1.560976   186A      1.590889  
     187A      1.608679   188A      1.637435   189A      1.669494  
     190A      1.677191   191A      1.689369   192A      1.703636  
     193A      1.723957   194A      1.749249   195A      1.764367  
     196A      1.805025   197A      1.875589   198A      1.932406  
     199A      1.943562   200A      1.988139   201A      2.021453  
     202A      2.041597   203A      2.057662   204A      2.088810  
     205A      2.109581   206A      2.135360   207A      2.144708  
     208A      2.168654   209A      2.189999   210A      2.200828  
     211A      2.217156   212A      2.230454   213A      2.234387  
     214A      2.262386   215A      2.275832   216A      2.278285  
     217A      2.289785   218A      2.307637   219A      2.336217  
     220A      2.360646   221A      2.381107   222A      2.389121  
     223A      2.393758   224A      2.395050   225A      2.435199  
     226A      2.444395   227A      2.464942   228A      2.478849  
     229A      2.500434   230A      2.514090   231A      2.531785  
     232A      2.549343   233A      2.570195   234A      2.584820  
     235A      2.631852   236A      2.642959   237A      2.668024  
     238A      2.703514   239A      2.719401   240A      2.733013  
     241A      2.826807   242A      2.828433   243A      2.834707  
     244A      2.870289   245A      2.890546   246A      2.901543  
     247A      2.918563   248A      2.945664   249A      2.999195  
     250A      3.028581   251A      3.055311   252A      3.090338  
     253A      3.092440   254A      3.122703   255A      3.140556  
     256A      3.182485   257A      3.189011   258A      3.222030  
     259A      3.254642   260A      3.289699   261A      3.297913  
     262A      3.356263   263A      3.380219   264A      3.396102  
     265A      3.423978   266A      3.448817   267A      3.487676  
     268A      3.498036   269A      3.520764   270A      3.634068  
     271A      3.667455   272A      3.686295   273A      3.736136  
     274A      3.770577   275A      3.851643   276A      3.889250  
     277A      3.964920   278A      4.036003   279A      4.095258  
     280A      4.209312   281A      4.244594   282A      4.448943  
     283A      4.463032   284A      4.658922   285A      4.708539  
     286A      4.750458   287A      4.811291   288A      4.995383  
     289A      5.077310   290A      5.241964   291A      5.531757  
     292A      5.669452   293A      5.827356   294A      6.107210  
     295A      6.318875   296A      6.708919   297A      6.968376  
     298A     18.111729   299A     18.648394   300A     19.374128  
     301A     25.246053   302A     25.705444  

    Final Occupation by Irrep:
              A 
    DOCC [    18 ]

  @DF-RHF Final Energy:  -224.76243506112320

   => Energetics <=

    Nuclear Repulsion Energy =            166.6286027946744639
    One-Electron Energy =                -633.5084733707586793
    Two-Electron Energy =                 242.1174355149610165
    Total Energy =                       -224.7624350611231989

Computation Completed


Properties will be evaluated at   0.000000,   0.000000,   0.000000 [a0]

Properties computed using the SCF density matrix

  Nuclear Dipole Moment: [e a0]
     X:  -394.4144      Y:  -540.4107      Z: -1369.0483

  Electronic Dipole Moment: [e a0]
     X:   394.7053      Y:   539.8467      Z:  1368.3451

  Dipole Moment: [e a0]
     X:     0.2909      Y:    -0.5640      Z:    -0.7031     Total:     0.9472

  Dipole Moment: [D]
     X:     0.7394      Y:    -1.4336      Z:    -1.7871     Total:     2.4074


*** tstop() called on ds1 at Mon Oct  4 15:01:15 2021
Module time:
	user time   =      15.68 seconds =       0.26 minutes
	system time =       0.35 seconds =       0.01 minutes
	total time  =          3 seconds =       0.05 minutes
Total time:
	user time   =      53.47 seconds =       0.89 minutes
	system time =       1.30 seconds =       0.02 minutes
	total time  =         12 seconds =       0.20 minutes
  Constructing Basis Sets for SAPT...

   => Loading Basis Set <=

    Name: (AUG-CC-PVDZ AUX)
    Role: RIFIT
    Keyword: DF_BASIS_SAPT
    atoms 1-2, 10-11 entry N          line   158 file /theoryfs2/ds/csargent/miniconda3/envs/cle/share/psi4/basis/aug-cc-pvdz-ri.gbs 
    atoms 3-6, 12-15 entry H          line    30 file /theoryfs2/ds/csargent/miniconda3/envs/cle/share/psi4/basis/aug-cc-pvdz-ri.gbs 
    atoms 7-9, 16-18 entry C          line   112 file /theoryfs2/ds/csargent/miniconda3/envs/cle/share/psi4/basis/aug-cc-pvdz-ri.gbs 


  //>>>>>>>>>>>>>>>>>>>>>>>>>>>>>>>>>>>//
  //               SAPT0               //
  //<<<<<<<<<<<<<<<<<<<<<<<<<<<<<<<<<<<//


*** tstart() called on ds1
*** at Mon Oct  4 15:01:15 2021

        SAPT0  
    Ed Hohenstein
     6 June 2009

      Orbital Information
  --------------------------
    NSO        =       302
    NMO        =       302
    NRI        =       904
    NOCC A     =        18
    NOCC B     =        18
    FOCC A     =         5
    FOCC B     =         5
    NVIR A     =       284
    NVIR B     =       284

    Elst10,r            =    -0.000001613869 [Eh]
    Exch10              =     0.000000000000 [Eh]
    Exch10 (S^2)        =     0.000000000000 [Eh]

    Iter     Energy [mEh]          dE [mEh]         Residual      Time [s]
       1      -0.00000705       0.000007050       0.031243520             0
       2      -0.00000636      -0.000000691       0.006773872             0
       3      -0.00000701       0.000000649       0.002207394             1
       4      -0.00000706       0.000000048       0.000789586             1
       5      -0.00000705      -0.000000011       0.000354529             1
       6      -0.00000704      -0.000000007       0.000123899             1
       7      -0.00000704      -0.000000000       0.000046656             1
       8      -0.00000704       0.000000001       0.000017350             1
       9      -0.00000704      -0.000000000       0.000006515             1
      10      -0.00000704      -0.000000000       0.000001544             1
      11      -0.00000704       0.000000000       0.000000651             2

    CHF Iterations converged


    Iter     Energy [mEh]          dE [mEh]         Residual      Time [s]
       1      -0.00000340       0.000003403       0.020408626             0
       2      -0.00000309      -0.000000312       0.004945296             0
       3      -0.00000334       0.000000250       0.002236934             0
       4      -0.00000342       0.000000075       0.000493304             0
       5      -0.00000341      -0.000000009       0.000276417             0
       6      -0.00000340      -0.000000004       0.000094768             0
       7      -0.00000340       0.000000001       0.000042290             0
       8      -0.00000340       0.000000000       0.000016404             1
       9      -0.00000340      -0.000000000       0.000005258             1
      10      -0.00000340      -0.000000000       0.000001352             1
      11      -0.00000340       0.000000000       0.000000640             1

    CHF Iterations converged

    Ind20,r (A<-B)      =    -0.000000007039 [Eh]
    Ind20,r (B<-A)      =    -0.000000003404 [Eh]
    Ind20,r             =    -0.000000010444 [Eh]
    Exch-Ind20,r (A<-B) =     0.000000000000 [Eh]
    Exch-Ind20,r (B<-A) =     0.000000000000 [Eh]
    Exch-Ind20,r        =     0.000000000000 [Eh]
    Disp20              =    -0.000000182542 [Eh]
    Disp20 (SS)         =    -0.000000091271 [Eh]
    Disp20 (OS)         =    -0.000000091271 [Eh]
    Exch-Disp20         =     0.000000000000 [Eh]
    Exch-Disp20 (SS)    =     0.000000000000 [Eh]
    Exch-Disp20 (OS)    =     0.000000000000 [Eh]

    SAPT Results 
  --------------------------------------------------------------------------------------------------------
    Electrostatics                 -0.00161387 [mEh]      -0.00101272 [kcal/mol]      -0.00423721 [kJ/mol]
      Elst10,r                     -0.00161387 [mEh]      -0.00101272 [kcal/mol]      -0.00423721 [kJ/mol]

    Exchange                        0.00000000 [mEh]       0.00000000 [kcal/mol]       0.00000000 [kJ/mol]
      Exch10                        0.00000000 [mEh]       0.00000000 [kcal/mol]       0.00000000 [kJ/mol]
      Exch10(S^2)                   0.00000000 [mEh]       0.00000000 [kcal/mol]       0.00000000 [kJ/mol]

    Induction                       0.00005512 [mEh]       0.00003459 [kcal/mol]       0.00014473 [kJ/mol]
      Ind20,r                      -0.00001044 [mEh]      -0.00000655 [kcal/mol]      -0.00002742 [kJ/mol]
      Exch-Ind20,r                  0.00000000 [mEh]       0.00000000 [kcal/mol]       0.00000000 [kJ/mol]
      delta HF,r (2)                0.00006557 [mEh]       0.00004114 [kcal/mol]       0.00017215 [kJ/mol]

    Dispersion                     -0.00018254 [mEh]      -0.00011455 [kcal/mol]      -0.00047926 [kJ/mol]
      Disp20                       -0.00018254 [mEh]      -0.00011455 [kcal/mol]      -0.00047926 [kJ/mol]
      Exch-Disp20                   0.00000000 [mEh]       0.00000000 [kcal/mol]       0.00000000 [kJ/mol]
      Disp20 (SS)                  -0.00009127 [mEh]      -0.00005727 [kcal/mol]      -0.00023963 [kJ/mol]
      Disp20 (OS)                  -0.00009127 [mEh]      -0.00005727 [kcal/mol]      -0.00023963 [kJ/mol]
      Exch-Disp20 (SS)              0.00000000 [mEh]       0.00000000 [kcal/mol]       0.00000000 [kJ/mol]
      Exch-Disp20 (OS)              0.00000000 [mEh]       0.00000000 [kcal/mol]       0.00000000 [kJ/mol]

  Total HF                         -0.00155875 [mEh]      -0.00097813 [kcal/mol]      -0.00409249 [kJ/mol]
  Total SAPT0                      -0.00174129 [mEh]      -0.00109267 [kcal/mol]      -0.00457175 [kJ/mol]

  Special recipe for scaled SAPT0 (see Manual):
    Electrostatics sSAPT0          -0.00161387 [mEh]      -0.00101272 [kcal/mol]      -0.00423721 [kJ/mol]
    Exchange sSAPT0                 0.00000000 [mEh]       0.00000000 [kcal/mol]       0.00000000 [kJ/mol]
    Induction sSAPT0                0.00005512 [mEh]       0.00003459 [kcal/mol]       0.00014473 [kJ/mol]
    Dispersion sSAPT0              -0.00018254 [mEh]      -0.00011455 [kcal/mol]      -0.00047926 [kJ/mol]
  Total sSAPT0                     -0.00174129 [mEh]      -0.00109267 [kcal/mol]      -0.00457175 [kJ/mol]
  --------------------------------------------------------------------------------------------------------

*** tstop() called on ds1 at Mon Oct  4 15:01:24 2021
Module time:
	user time   =      44.41 seconds =       0.74 minutes
	system time =       3.79 seconds =       0.06 minutes
	total time  =          9 seconds =       0.15 minutes
Total time:
	user time   =      98.84 seconds =       1.65 minutes
	system time =       5.11 seconds =       0.09 minutes
	total time  =         21 seconds =       0.35 minutes


Warning! sapt0 does not have an associated derived wavefunction.The returned wavefunction is the dimer SCF wavefunction.


    Psi4 stopped on: Monday, 04 October 2021 03:01PM
    Psi4 wall time for execution: 0:00:21.20

*** Psi4 exiting successfully. Buy a developer a beer!
