
    -----------------------------------------------------------------------
          Psi4: An Open-Source Ab Initio Electronic Structure Package
                               Psi4 1.4rc3 

                         Git: Rev {HEAD} 080dba6 


    D. G. A. Smith, L. A. Burns, A. C. Simmonett, R. M. Parrish,
    M. C. Schieber, R. Galvelis, P. Kraus, H. Kruse, R. Di Remigio,
    A. Alenaizan, A. M. James, S. Lehtola, J. P. Misiewicz, M. Scheurer,
    R. A. Shaw, J. B. Schriber, Y. Xie, Z. L. Glick, D. A. Sirianni,
    J. S. O'Brien, J. M. Waldrop, A. Kumar, E. G. Hohenstein,
    B. P. Pritchard, B. R. Brooks, H. F. Schaefer III, A. Yu. Sokolov,
    K. Patkowski, A. E. DePrince III, U. Bozkaya, R. A. King,
    F. A. Evangelista, J. M. Turney, T. D. Crawford, C. D. Sherrill,
    J. Chem. Phys. 152(18) 184108 (2020). https://doi.org/10.1063/5.0006002

                            Additional Code Authors
    E. T. Seidl, C. L. Janssen, E. F. Valeev, M. L. Leininger,
    J. F. Gonthier, R. M. Richard, H. R. McAlexander, M. Saitow, X. Wang,
    P. Verma, and M. H. Lechner

             Previous Authors, Complete List of Code Contributors,
                       and Citations for Specific Modules
    https://github.com/psi4/psi4/blob/master/codemeta.json
    https://github.com/psi4/psi4/graphs/contributors
    http://psicode.org/psi4manual/master/introduction.html#citing-psifour

    -----------------------------------------------------------------------


    Psi4 started on: Monday, 04 October 2021 02:25PM

    Process ID: 10377
    Host:       ds1
    PSIDATADIR: /theoryfs2/ds/csargent/miniconda3/envs/cle/share/psi4
    Memory:     500.0 MiB
    Threads:    6
    
  ==> Input File <==

--------------------------------------------------------------------------
# PSI4 file produced by CrystaLattE

# Generated from:               pyrazole.xyz
# Psithon input for N-mer:      2mer-0+618
# Number of atoms per monomer:  [9, 9]
# Number of replicas:           1
# COM priority:                 1.384463094526e-05
# Minimum COM separations:      22.038 
# Separation priority:          2.393332126174e-05
# Minimum monomer separations:  18.363 
# Cutoff priority:              6.897165184386e-07
# Nuclear repulsion energy:     364.3928514979179

memory 7 GB

molecule Dimer_0_618 {
  N            6.27981210      -4.25303372       0.19313865 
  N            6.06870777      -2.28125697       1.80544317 
  H            3.66871156      -5.64628941      -1.96684001 
  H            0.69034521      -2.37545694      -0.42864236 
  H            3.35917442       0.17650601       3.09265017 
  H            7.35266782      -1.99461311       2.90680702 
  C            3.77952586      -1.21508453       1.76858172 
  C            2.38242998      -2.55505538       0.04607681 
  C            4.01771468      -4.38410490      -0.88761863 
--
  N           33.75185229       9.60054745      27.18608831 
  N           33.87071455       7.56264041      25.64891459 
  H           36.42501503      12.00145742      27.90411866 
  H           39.31965158       9.55891867      25.14898116 
  H           36.38322751       5.84586966      23.24434485 
  H           32.40830634       6.75266336      25.26314926 
  C           36.15355095       7.23246474      24.61986574 
  C           37.63654339       9.16213696      25.50978821 
  C           36.07523806      10.54730477      27.10148616 
units = au
no_com
no_reorient
}

set {
  e_convergence 10
  d_convergence 10
  scf_type df
  mp2_type df
  cc_type df
  freeze_core true
}

energy('sapt0/aug-cc-pvdz')

--------------------------------------------------------------------------

  Memory set to   6.519 GiB by Python driver.

Scratch directory: /scratch/csargent/psi4.7158.66302/

Scratch directory: /scratch/csargent/psi4.7158.66302/

  //>>>>>>>>>>>>>>>>>>>>>>>>>>>>>>>>>>>//
  //              Dimer HF             //
  //<<<<<<<<<<<<<<<<<<<<<<<<<<<<<<<<<<<//


*** tstart() called on ds1
*** at Mon Oct  4 14:25:23 2021

   => Loading Basis Set <=

    Name: AUG-CC-PVDZ
    Role: ORBITAL
    Keyword: BASIS
    atoms 1-2, 10-11 entry N          line   218 file /theoryfs2/ds/csargent/miniconda3/envs/cle/share/psi4/basis/aug-cc-pvdz.gbs 
    atoms 3-6, 12-15 entry H          line    40 file /theoryfs2/ds/csargent/miniconda3/envs/cle/share/psi4/basis/aug-cc-pvdz.gbs 
    atoms 7-9, 16-18 entry C          line   182 file /theoryfs2/ds/csargent/miniconda3/envs/cle/share/psi4/basis/aug-cc-pvdz.gbs 


         ---------------------------------------------------------
                                   SCF
               by Justin Turney, Rob Parrish, Andy Simmonett
                          and Daniel G. A. Smith
                              RHF Reference
                        6 Threads,   6675 MiB Core
         ---------------------------------------------------------

  ==> Geometry <==

    Molecular point group: c1
    Full point group: C1

    Geometry (in Bohr), charge = 0, multiplicity = 1:

       Center              X                  Y                   Z               Mass       
    ------------   -----------------  -----------------  -----------------  -----------------
         N            6.279812100000    -4.253033720000     0.193138650000    14.003074004430
         N            6.068707770000    -2.281256970000     1.805443170000    14.003074004430
         H            3.668711560000    -5.646289410000    -1.966840010000     1.007825032230
         H            0.690345210000    -2.375456940000    -0.428642360000     1.007825032230
         H            3.359174420000     0.176506010000     3.092650170000     1.007825032230
         H            7.352667820000    -1.994613110000     2.906807020000     1.007825032230
         C            3.779525860000    -1.215084530000     1.768581720000    12.000000000000
         C            2.382429980000    -2.555055380000     0.046076810000    12.000000000000
         C            4.017714680000    -4.384104900000    -0.887618630000    12.000000000000
         N           33.751852290000     9.600547450000    27.186088310000    14.003074004430
         N           33.870714550000     7.562640410000    25.648914590000    14.003074004430
         H           36.425015030000    12.001457420000    27.904118660000     1.007825032230
         H           39.319651580000     9.558918670000    25.148981160000     1.007825032230
         H           36.383227510000     5.845869660000    23.244344850000     1.007825032230
         H           32.408306340000     6.752663360000    25.263149260000     1.007825032230
         C           36.153550950000     7.232464740000    24.619865740000    12.000000000000
         C           37.636543390000     9.162136960000    25.509788210000    12.000000000000
         C           36.075238060000    10.547304770000    27.101486160000    12.000000000000

  Running in c1 symmetry.

  Rotational constants: A =      0.03632  B =      0.00044  C =      0.00043 [cm^-1]
  Rotational constants: A =   1088.84889  B =     13.09055  C =     12.94991 [MHz]
  Nuclear repulsion =  364.392851436110675

  Charge       = 0
  Multiplicity = 1
  Electrons    = 72
  Nalpha       = 36
  Nbeta        = 36

  ==> Algorithm <==

  SCF Algorithm Type is DF.
  DIIS enabled.
  MOM disabled.
  Fractional occupation disabled.
  Guess Type is SAD.
  Energy threshold   = 1.00e-10
  Density threshold  = 1.00e-10
  Integral threshold = 1.00e-12

  ==> Primary Basis <==

  Basis Set: AUG-CC-PVDZ
    Blend: AUG-CC-PVDZ
    Number of shells: 130
    Number of basis functions: 302
    Number of Cartesian functions: 322
    Spherical Harmonics?: true
    Max angular momentum: 2

   => Loading Basis Set <=

    Name: (AUG-CC-PVDZ AUX)
    Role: JKFIT
    Keyword: DF_BASIS_SCF
    atoms 1-2, 10-11 entry N          line   212 file /theoryfs2/ds/csargent/miniconda3/envs/cle/share/psi4/basis/aug-cc-pvdz-jkfit.gbs 
    atoms 3-6, 12-15 entry H          line    70 file /theoryfs2/ds/csargent/miniconda3/envs/cle/share/psi4/basis/aug-cc-pvdz-jkfit.gbs 
    atoms 7-9, 16-18 entry C          line   154 file /theoryfs2/ds/csargent/miniconda3/envs/cle/share/psi4/basis/aug-cc-pvdz-jkfit.gbs 

  ==> Integral Setup <==

  ==> DiskDFJK: Density-Fitted J/K Matrices <==

    J tasked:                  Yes
    K tasked:                  Yes
    wK tasked:                  No
    OpenMP threads:              6
    Integrals threads:           6
    Memory [MiB]:             5006
    Algorithm:                Core
    Integral Cache:           SAVE
    Schwarz Cutoff:          1E-12
    Fitting Condition:       1E-10

   => Auxiliary Basis Set <=

  Basis Set: (AUG-CC-PVDZ AUX)
    Blend: AUG-CC-PVDZ-JKFIT
    Number of shells: 376
    Number of basis functions: 1116
    Number of Cartesian functions: 1290
    Spherical Harmonics?: true
    Max angular momentum: 3

  Minimum eigenvalue in the overlap matrix is 3.0324469513E-05.
  Reciprocal condition number of the overlap matrix is 2.4867199547E-06.
    Using symmetric orthogonalization.

  ==> Pre-Iterations <==

  SCF Guess: Superposition of Atomic Densities via on-the-fly atomic UHF (no occupation information).

   -------------------------
    Irrep   Nso     Nmo    
   -------------------------
     A        302     302 
   -------------------------
    Total     302     302
   -------------------------

  ==> Iterations <==

                           Total Energy        Delta E     RMS |[F,P]|

   @DF-RHF iter SAD:  -449.44445655371271   -4.49444e+02   0.00000e+00 
   @DF-RHF iter   1:  -449.27103428075145    1.73422e-01   2.12828e-03 DIIS
   @DF-RHF iter   2:  -449.47975296337535   -2.08719e-01   9.74098e-04 DIIS
   @DF-RHF iter   3:  -449.52160889561878   -4.18559e-02   2.10353e-04 DIIS
   @DF-RHF iter   4:  -449.52437984737855   -2.77095e-03   8.57455e-05 DIIS
   @DF-RHF iter   5:  -449.52473761250593   -3.57765e-04   1.69538e-05 DIIS
   @DF-RHF iter   6:  -449.52477152008862   -3.39076e-05   7.02636e-06 DIIS
   @DF-RHF iter   7:  -449.52477942414220   -7.90405e-06   3.10173e-06 DIIS
   @DF-RHF iter   8:  -449.52478094968319   -1.52554e-06   1.43826e-06 DIIS
   @DF-RHF iter   9:  -449.52478128581720   -3.36134e-07   4.01110e-07 DIIS
   @DF-RHF iter  10:  -449.52478130351102   -1.76938e-08   1.20878e-07 DIIS
   @DF-RHF iter  11:  -449.52478130488879   -1.37777e-09   2.82114e-08 DIIS
   @DF-RHF iter  12:  -449.52478130498076   -9.19727e-11   8.20398e-09 DIIS
   @DF-RHF iter  13:  -449.52478130498946   -8.69704e-12   3.99331e-09 DIIS
   @DF-RHF iter  14:  -449.52478130499196   -2.50111e-12   1.37421e-09 DIIS
   @DF-RHF iter  15:  -449.52478130499185    1.13687e-13   5.86545e-10 DIIS
   @DF-RHF iter  16:  -449.52478130499230   -4.54747e-13   1.78880e-10 DIIS
   @DF-RHF iter  17:  -449.52478130499196    3.41061e-13   6.41647e-11 DIIS
  Energy and wave function converged.


  ==> Post-Iterations <==

    Orbital Energies [Eh]
    ---------------------

    Doubly Occupied:                                                      

       1A    -15.636506     2A    -15.636463     3A    -15.592594  
       4A    -15.592520     5A    -11.280163     6A    -11.280121  
       7A    -11.238063     8A    -11.237986     9A    -11.210153  
      10A    -11.210096    11A     -1.387231    12A     -1.387204  
      13A     -1.122184    14A     -1.122123    15A     -1.067169  
      16A     -1.067147    17A     -0.873046    18A     -0.872985  
      19A     -0.837332    20A     -0.837259    21A     -0.757560  
      22A     -0.757488    23A     -0.646023    24A     -0.645970  
      25A     -0.621103    26A     -0.621046    27A     -0.609422  
      28A     -0.609406    29A     -0.584188    30A     -0.584122  
      31A     -0.461692    32A     -0.461648    33A     -0.371000  
      34A     -0.370942    35A     -0.346320    36A     -0.346275  

    Virtual:                                                              

      37A      0.030501    38A      0.030558    39A      0.042152  
      40A      0.042196    41A      0.048861    42A      0.048918  
      43A      0.063251    44A      0.063306    45A      0.100742  
      46A      0.100795    47A      0.103747    48A      0.103801  
      49A      0.116923    50A      0.116974    51A      0.125998  
      52A      0.126054    53A      0.132803    54A      0.132857  
      55A      0.138176    56A      0.138220    57A      0.141274  
      58A      0.141315    59A      0.156665    60A      0.156714  
      61A      0.164367    62A      0.164415    63A      0.170794  
      64A      0.170852    65A      0.178140    66A      0.178189  
      67A      0.195716    68A      0.195783    69A      0.204494  
      70A      0.204559    71A      0.205851    72A      0.205911  
      73A      0.239968    74A      0.240020    75A      0.243347  
      76A      0.243404    77A      0.244664    78A      0.244720  
      79A      0.270836    80A      0.270898    81A      0.278798  
      82A      0.278859    83A      0.300714    84A      0.300781  
      85A      0.324879    86A      0.324923    87A      0.352089  
      88A      0.352138    89A      0.355094    90A      0.355148  
      91A      0.374646    92A      0.374698    93A      0.395807  
      94A      0.395861    95A      0.402470    96A      0.402527  
      97A      0.414759    98A      0.414815    99A      0.431838  
     100A      0.431894   101A      0.443097   102A      0.443143  
     103A      0.453109   104A      0.453183   105A      0.459557  
     106A      0.459604   107A      0.478366   108A      0.478422  
     109A      0.498269   110A      0.498321   111A      0.508415  
     112A      0.508469   113A      0.521655   114A      0.521744  
     115A      0.541298   116A      0.541356   117A      0.574146  
     118A      0.574197   119A      0.586048   120A      0.586102  
     121A      0.590274   122A      0.590334   123A      0.602149  
     124A      0.602219   125A      0.620690   126A      0.620762  
     127A      0.645848   128A      0.645900   129A      0.655045  
     130A      0.655104   131A      0.675895   132A      0.675951  
     133A      0.697774   134A      0.697824   135A      0.700117  
     136A      0.700162   137A      0.721396   138A      0.721430  
     139A      0.724849   140A      0.724907   141A      0.747439  
     142A      0.747497   143A      0.758324   144A      0.758427  
     145A      0.773046   146A      0.773079   147A      0.781199  
     148A      0.781246   149A      0.828219   150A      0.828280  
     151A      0.837952   152A      0.838014   153A      0.848131  
     154A      0.848171   155A      0.881133   156A      0.881186  
     157A      0.888504   158A      0.888550   159A      0.906678  
     160A      0.906730   161A      0.924531   162A      0.924573  
     163A      0.942307   164A      0.942377   165A      0.977954  
     166A      0.977984   167A      0.984580   168A      0.984633  
     169A      1.010858   170A      1.010932   171A      1.046311  
     172A      1.046384   173A      1.066239   174A      1.066291  
     175A      1.100567   176A      1.100623   177A      1.127784  
     178A      1.127877   179A      1.133916   180A      1.133927  
     181A      1.149970   182A      1.150024   183A      1.174894  
     184A      1.174946   185A      1.220265   186A      1.220309  
     187A      1.269282   188A      1.269352   189A      1.303059  
     190A      1.303161   191A      1.311115   192A      1.311199  
     193A      1.365520   194A      1.365569   195A      1.400778  
     196A      1.400825   197A      1.474400   198A      1.474471  
     199A      1.511746   200A      1.511791   201A      1.525862  
     202A      1.525921   203A      1.560719   204A      1.560757  
     205A      1.590621   206A      1.590679   207A      1.608402  
     208A      1.608463   209A      1.637177   210A      1.637223  
     211A      1.669208   212A      1.669280   213A      1.703362  
     214A      1.703415   215A      1.723675   216A      1.723734  
     217A      1.748941   218A      1.749027   219A      1.764101  
     220A      1.764147   221A      1.804775   222A      1.804803  
     223A      1.875365   224A      1.875373   225A      1.932116  
     226A      1.932184   227A      1.943297   228A      1.943352  
     229A      1.987798   230A      1.987921   231A      2.021169  
     232A      2.021229   233A      2.057339   234A      2.057441  
     235A      2.088565   236A      2.088589   237A      2.144412  
     238A      2.144485   239A      2.189738   240A      2.189784  
     241A      2.200559   242A      2.200611   243A      2.230177  
     244A      2.230227   245A      2.275557   246A      2.275615  
     247A      2.307362   248A      2.307412   249A      2.360427  
     250A      2.360447   251A      2.388854   252A      2.388897  
     253A      2.393522   254A      2.393530   255A      2.434960  
     256A      2.434966   257A      2.464674   258A      2.464704  
     259A      2.531521   260A      2.531561   261A      2.569954  
     262A      2.569969   263A      2.584429   264A      2.584588  
     265A      2.642683   266A      2.642734   267A      2.732754  
     268A      2.732791   269A      2.826559   270A      2.826581  
     271A      2.834473   272A      2.834482   273A      2.901305  
     274A      2.901313   275A      2.918314   276A      2.918333  
     277A      2.998882   278A      2.998973   279A      3.055046  
     280A      3.055086   281A      3.092074   282A      3.092209  
     283A      3.122455   284A      3.122480   285A      3.188653  
     286A      3.188786   287A      3.221734   288A      3.221808  
     289A      3.297583   290A      3.297684   291A      3.379969  
     292A      3.380005   293A      3.520445   294A      3.520535  
     295A      3.686075   296A      3.686291   297A      3.889018  
     298A      3.889041   299A      4.209081   300A      4.209144  
     301A      4.462817   302A      4.462969  

    Final Occupation by Irrep:
              A 
    DOCC [    36 ]

  @DF-RHF Final Energy:  -449.52478130499196

   => Energetics <=

    Nuclear Repulsion Energy =            364.3928514361106750
    One-Electron Energy =               -1329.2701652196265059
    Two-Electron Energy =                 515.3525324785238126
    Total Energy =                       -449.5247813049919614

Computation Completed


Properties will be evaluated at   0.000000,   0.000000,   0.000000 [a0]

Properties computed using the SCF density matrix

  Nuclear Dipole Moment: [e a0]
     X:  1439.6747      Y:   211.4473      Z:   957.9487

  Electronic Dipole Moment: [e a0]
     X: -1439.7866      Y:  -211.3796      Z:  -958.0725

  Dipole Moment: [e a0]
     X:    -0.1118      Y:     0.0677      Z:    -0.1237     Total:     0.1800

  Dipole Moment: [D]
     X:    -0.2842      Y:     0.1722      Z:    -0.3145     Total:     0.4575


*** tstop() called on ds1 at Mon Oct  4 14:25:27 2021
Module time:
	user time   =      22.45 seconds =       0.37 minutes
	system time =       0.59 seconds =       0.01 minutes
	total time  =          4 seconds =       0.07 minutes
Total time:
	user time   =      22.45 seconds =       0.37 minutes
	system time =       0.59 seconds =       0.01 minutes
	total time  =          4 seconds =       0.07 minutes

  //>>>>>>>>>>>>>>>>>>>>>>>>>>>>>>>>>>>//
  //            Monomer A HF           //
  //<<<<<<<<<<<<<<<<<<<<<<<<<<<<<<<<<<<//


*** tstart() called on ds1
*** at Mon Oct  4 14:25:27 2021

   => Loading Basis Set <=

    Name: AUG-CC-PVDZ
    Role: ORBITAL
    Keyword: BASIS
    atoms 1-2, 10-11 entry N          line   218 file /theoryfs2/ds/csargent/miniconda3/envs/cle/share/psi4/basis/aug-cc-pvdz.gbs 
    atoms 3-6, 12-15 entry H          line    40 file /theoryfs2/ds/csargent/miniconda3/envs/cle/share/psi4/basis/aug-cc-pvdz.gbs 
    atoms 7-9, 16-18 entry C          line   182 file /theoryfs2/ds/csargent/miniconda3/envs/cle/share/psi4/basis/aug-cc-pvdz.gbs 


         ---------------------------------------------------------
                                   SCF
               by Justin Turney, Rob Parrish, Andy Simmonett
                          and Daniel G. A. Smith
                              RHF Reference
                        6 Threads,   6675 MiB Core
         ---------------------------------------------------------

  ==> Geometry <==

    Molecular point group: c1
    Full point group: C1

    Geometry (in Bohr), charge = 0, multiplicity = 1:

       Center              X                  Y                   Z               Mass       
    ------------   -----------------  -----------------  -----------------  -----------------
         N            6.279812100000    -4.253033720000     0.193138650000    14.003074004430
         N            6.068707770000    -2.281256970000     1.805443170000    14.003074004430
         H            3.668711560000    -5.646289410000    -1.966840010000     1.007825032230
         H            0.690345210000    -2.375456940000    -0.428642360000     1.007825032230
         H            3.359174420000     0.176506010000     3.092650170000     1.007825032230
         H            7.352667820000    -1.994613110000     2.906807020000     1.007825032230
         C            3.779525860000    -1.215084530000     1.768581720000    12.000000000000
         C            2.382429980000    -2.555055380000     0.046076810000    12.000000000000
         C            4.017714680000    -4.384104900000    -0.887618630000    12.000000000000
      Gh(N)          33.751852290000     9.600547450000    27.186088310000    14.003074004430
      Gh(N)          33.870714550000     7.562640410000    25.648914590000    14.003074004430
      Gh(H)          36.425015030000    12.001457420000    27.904118660000     1.007825032230
      Gh(H)          39.319651580000     9.558918670000    25.148981160000     1.007825032230
      Gh(H)          36.383227510000     5.845869660000    23.244344850000     1.007825032230
      Gh(H)          32.408306340000     6.752663360000    25.263149260000     1.007825032230
      Gh(C)          36.153550950000     7.232464740000    24.619865740000    12.000000000000
      Gh(C)          37.636543390000     9.162136960000    25.509788210000    12.000000000000
      Gh(C)          36.075238060000    10.547304770000    27.101486160000    12.000000000000

  Running in c1 symmetry.

  Rotational constants: A =      0.03632  B =      0.00044  C =      0.00043 [cm^-1]
  Rotational constants: A =   1088.84889  B =     13.09055  C =     12.94991 [MHz]
  Nuclear repulsion =  166.624056450327203

  Charge       = 0
  Multiplicity = 1
  Electrons    = 36
  Nalpha       = 18
  Nbeta        = 18

  ==> Algorithm <==

  SCF Algorithm Type is DF.
  DIIS enabled.
  MOM disabled.
  Fractional occupation disabled.
  Guess Type is SAD.
  Energy threshold   = 1.00e-10
  Density threshold  = 1.00e-10
  Integral threshold = 1.00e-12

  ==> Primary Basis <==

  Basis Set: AUG-CC-PVDZ
    Blend: AUG-CC-PVDZ
    Number of shells: 130
    Number of basis functions: 302
    Number of Cartesian functions: 322
    Spherical Harmonics?: true
    Max angular momentum: 2

   => Loading Basis Set <=

    Name: (AUG-CC-PVDZ AUX)
    Role: JKFIT
    Keyword: DF_BASIS_SCF
    atoms 1-2, 10-11 entry N          line   212 file /theoryfs2/ds/csargent/miniconda3/envs/cle/share/psi4/basis/aug-cc-pvdz-jkfit.gbs 
    atoms 3-6, 12-15 entry H          line    70 file /theoryfs2/ds/csargent/miniconda3/envs/cle/share/psi4/basis/aug-cc-pvdz-jkfit.gbs 
    atoms 7-9, 16-18 entry C          line   154 file /theoryfs2/ds/csargent/miniconda3/envs/cle/share/psi4/basis/aug-cc-pvdz-jkfit.gbs 

  ==> Integral Setup <==

  ==> DiskDFJK: Density-Fitted J/K Matrices <==

    J tasked:                  Yes
    K tasked:                  Yes
    wK tasked:                  No
    OpenMP threads:              6
    Integrals threads:           6
    Memory [MiB]:             5006
    Algorithm:                Core
    Integral Cache:           LOAD
    Schwarz Cutoff:          1E-12
    Fitting Condition:       1E-10

   => Auxiliary Basis Set <=

  Basis Set: (AUG-CC-PVDZ AUX)
    Blend: AUG-CC-PVDZ-JKFIT
    Number of shells: 376
    Number of basis functions: 1116
    Number of Cartesian functions: 1290
    Spherical Harmonics?: true
    Max angular momentum: 3

  Minimum eigenvalue in the overlap matrix is 3.0324469513E-05.
  Reciprocal condition number of the overlap matrix is 2.4867199547E-06.
    Using symmetric orthogonalization.

  ==> Pre-Iterations <==

  SCF Guess: Superposition of Atomic Densities via on-the-fly atomic UHF (no occupation information).

   -------------------------
    Irrep   Nso     Nmo    
   -------------------------
     A        302     302 
   -------------------------
    Total     302     302
   -------------------------

  ==> Iterations <==

                           Total Energy        Delta E     RMS |[F,P]|

   @DF-RHF iter SAD:  -224.72194801211822   -2.24722e+02   0.00000e+00 
   @DF-RHF iter   1:  -224.63549169968900    8.64563e-02   1.50472e-03 DIIS
   @DF-RHF iter   2:  -224.73984613232338   -1.04354e-01   6.88462e-04 DIIS
   @DF-RHF iter   3:  -224.76075487119147   -2.09087e-02   1.48626e-04 DIIS
   @DF-RHF iter   4:  -224.76213931497153   -1.38444e-03   6.05310e-05 DIIS
   @DF-RHF iter   5:  -224.76231766973078   -1.78355e-04   1.19893e-05 DIIS
   @DF-RHF iter   6:  -224.76233462720467   -1.69575e-05   4.96772e-06 DIIS
   @DF-RHF iter   7:  -224.76233858324201   -3.95604e-06   2.18806e-06 DIIS
   @DF-RHF iter   8:  -224.76233934398442   -7.60742e-07   1.01700e-06 DIIS
   @DF-RHF iter   9:  -224.76233951162669   -1.67642e-07   2.83302e-07 DIIS
   @DF-RHF iter  10:  -224.76233952044745   -8.82076e-09   8.55547e-08 DIIS
   @DF-RHF iter  11:  -224.76233952113660   -6.89141e-10   1.99714e-08 DIIS
   @DF-RHF iter  12:  -224.76233952118295   -4.63558e-11   5.81092e-09 DIIS
   @DF-RHF iter  13:  -224.76233952118707   -4.12115e-12   2.83097e-09 DIIS
   @DF-RHF iter  14:  -224.76233952118778   -7.10543e-13   9.75191e-10 DIIS
   @DF-RHF iter  15:  -224.76233952118864   -8.52651e-13   4.15547e-10 DIIS
   @DF-RHF iter  16:  -224.76233952118838    2.55795e-13   1.25998e-10 DIIS
   @DF-RHF iter  17:  -224.76233952118832    5.68434e-14   4.47777e-11 DIIS
  Energy and wave function converged.


  ==> Post-Iterations <==

    Orbital Energies [Eh]
    ---------------------

    Doubly Occupied:                                                      

       1A    -15.636223     2A    -15.592313     3A    -11.279894  
       4A    -11.237784     5A    -11.209891     6A     -1.386922  
       7A     -1.121901     8A     -1.066898     9A     -0.872768  
      10A     -0.837061    11A     -0.757292    12A     -0.645746  
      13A     -0.620834    14A     -0.609140    15A     -0.583920  
      16A     -0.461404    17A     -0.370721    18A     -0.346048  

    Virtual:                                                              

      19A      0.022494    20A      0.030764    21A      0.039852  
      22A      0.042368    23A      0.043950    24A      0.049159  
      25A      0.063520    26A      0.065687    27A      0.083796  
      28A      0.090540    29A      0.098772    30A      0.100998  
      31A      0.104029    32A      0.117179    33A      0.118186  
      34A      0.125665    35A      0.126270    36A      0.128105  
      37A      0.133069    38A      0.133198    39A      0.133959  
      40A      0.138403    41A      0.141490    42A      0.156889  
      43A      0.158389    44A      0.164592    45A      0.165782  
      46A      0.171075    47A      0.178408    48A      0.179004  
      49A      0.195290    50A      0.196042    51A      0.201284  
      52A      0.204793    53A      0.206162    54A      0.222728  
      55A      0.224973    56A      0.228071    57A      0.235366  
      58A      0.240236    59A      0.243626    60A      0.244965  
      61A      0.263869    62A      0.270815    63A      0.271127  
      64A      0.279080    65A      0.301010    66A      0.321735  
      67A      0.325148    68A      0.339924    69A      0.352358  
      70A      0.355357    71A      0.366375    72A      0.372741  
      73A      0.374907    74A      0.383559    75A      0.396061  
      76A      0.402741    77A      0.414998    78A      0.427295  
      79A      0.431908    80A      0.432132    81A      0.441036  
      82A      0.442187    83A      0.443385    84A      0.453393  
      85A      0.455822    86A      0.457257    87A      0.459816  
      88A      0.461697    89A      0.478655    90A      0.498543  
      91A      0.508690    92A      0.509560    93A      0.519237  
      94A      0.521917    95A      0.532945    96A      0.537885  
      97A      0.541560    98A      0.559152    99A      0.568631  
     100A      0.571696   101A      0.574432   102A      0.586318  
     103A      0.590538   104A      0.595006   105A      0.602413  
     106A      0.613216   107A      0.620953   108A      0.621080  
     109A      0.633368   110A      0.646110   111A      0.655295  
     112A      0.676162   113A      0.690676   114A      0.698041  
     115A      0.700391   116A      0.707640   117A      0.719291  
     118A      0.721667   119A      0.725115   120A      0.735519  
     121A      0.745215   122A      0.747709   123A      0.758592  
     124A      0.773318   125A      0.781481   126A      0.789528  
     127A      0.797959   128A      0.814298   129A      0.820771  
     130A      0.828504   131A      0.838230   132A      0.848394  
     133A      0.851812   134A      0.854958   135A      0.870866  
     136A      0.880938   137A      0.881395   138A      0.888767  
     139A      0.895532   140A      0.906950   141A      0.916007  
     142A      0.924815   143A      0.942582   144A      0.951952  
     145A      0.978222   146A      0.984850   147A      0.997044  
     148A      1.011149   149A      1.024052   150A      1.030093  
     151A      1.046606   152A      1.051514   153A      1.066503  
     154A      1.071027   155A      1.080885   156A      1.100852  
     157A      1.108078   158A      1.128058   159A      1.134196  
     160A      1.150235   161A      1.158687   162A      1.166196  
     163A      1.175168   164A      1.184889   165A      1.220548  
     166A      1.221630   167A      1.236966   168A      1.267885  
     169A      1.269556   170A      1.293643   171A      1.303342  
     172A      1.311399   173A      1.315075   174A      1.340605  
     175A      1.365807   176A      1.381768   177A      1.401043  
     178A      1.434921   179A      1.444668   180A      1.474691  
     181A      1.493136   182A      1.506988   183A      1.512027  
     184A      1.526129   185A      1.560989   186A      1.590882  
     187A      1.608669   188A      1.637437   189A      1.669472  
     190A      1.676647   191A      1.688812   192A      1.703634  
     193A      1.723950   194A      1.749215   195A      1.764373  
     196A      1.805048   197A      1.875632   198A      1.932390  
     199A      1.943558   200A      1.988067   201A      2.021445  
     202A      2.041036   203A      2.057611   204A      2.088839  
     205A      2.109049   206A      2.134756   207A      2.144687  
     208A      2.168094   209A      2.190005   210A      2.200827  
     211A      2.216581   212A      2.230457   213A      2.233830  
     214A      2.261833   215A      2.275825   216A      2.277684  
     217A      2.289226   218A      2.307640   219A      2.335605  
     220A      2.360716   221A      2.380553   222A      2.389130  
     223A      2.393822   224A      2.394502   225A      2.435246  
     226A      2.443834   227A      2.464967   228A      2.478262  
     229A      2.499917   230A      2.513590   231A      2.531798  
     232A      2.548795   233A      2.570232   234A      2.584716  
     235A      2.631288   236A      2.642961   237A      2.667489  
     238A      2.702984   239A      2.718850   240A      2.733029  
     241A      2.826838   242A      2.827907   243A      2.834751  
     244A      2.869767   245A      2.889994   246A      2.901587  
     247A      2.918598   248A      2.945048   249A      2.999157  
     250A      3.027945   251A      3.055324   252A      3.089713  
     253A      3.092358   254A      3.122730   255A      3.140008  
     256A      3.181838   257A      3.188930   258A      3.222008  
     259A      3.254111   260A      3.289072   261A      3.297865  
     262A      3.355615   263A      3.380235   264A      3.395579  
     265A      3.423358   266A      3.448171   267A      3.487171  
     268A      3.497527   269A      3.520727   270A      3.633565  
     271A      3.666920   272A      3.686563   273A      3.735594  
     274A      3.770079   275A      3.851092   276A      3.889327  
     277A      3.964516   278A      4.035587   279A      4.094727  
     280A      4.209428   281A      4.244041   282A      4.448215  
     283A      4.463235   284A      4.658429   285A      4.708119  
     286A      4.749922   287A      4.810802   288A      4.994823  
     289A      5.076679   290A      5.241218   291A      5.531443  
     292A      5.668989   293A      5.826629   294A      6.106994  
     295A      6.318180   296A      6.707553   297A      6.967462  
     298A     18.111163   299A     18.648043   300A     19.373684  
     301A     25.245390   302A     25.705286  

    Final Occupation by Irrep:
              A 
    DOCC [    18 ]

  @DF-RHF Final Energy:  -224.76233952118832

   => Energetics <=

    Nuclear Repulsion Energy =            166.6240564503272026
    One-Electron Energy =                -633.4992733863231251
    Two-Electron Energy =                 242.1128774148075991
    Total Energy =                       -224.7623395211883235

Computation Completed


Properties will be evaluated at   0.000000,   0.000000,   0.000000 [a0]

Properties computed using the SCF density matrix

  Nuclear Dipole Moment: [e a0]
     X:   162.5886      Y:  -104.5054      Z:    23.1563

  Electronic Dipole Moment: [e a0]
     X:  -162.9913      Y:   105.1370      Z:   -22.5767

  Dipole Moment: [e a0]
     X:    -0.4027      Y:     0.6317      Z:     0.5796     Total:     0.9472

  Dipole Moment: [D]
     X:    -1.0235      Y:     1.6055      Z:     1.4733     Total:     2.4075


*** tstop() called on ds1 at Mon Oct  4 14:25:31 2021
Module time:
	user time   =      16.65 seconds =       0.28 minutes
	system time =       0.33 seconds =       0.01 minutes
	total time  =          4 seconds =       0.07 minutes
Total time:
	user time   =      39.38 seconds =       0.66 minutes
	system time =       0.92 seconds =       0.02 minutes
	total time  =          8 seconds =       0.13 minutes

  //>>>>>>>>>>>>>>>>>>>>>>>>>>>>>>>>>>>//
  //            Monomer B HF           //
  //<<<<<<<<<<<<<<<<<<<<<<<<<<<<<<<<<<<//


*** tstart() called on ds1
*** at Mon Oct  4 14:25:31 2021

   => Loading Basis Set <=

    Name: AUG-CC-PVDZ
    Role: ORBITAL
    Keyword: BASIS
    atoms 1-2, 10-11 entry N          line   218 file /theoryfs2/ds/csargent/miniconda3/envs/cle/share/psi4/basis/aug-cc-pvdz.gbs 
    atoms 3-6, 12-15 entry H          line    40 file /theoryfs2/ds/csargent/miniconda3/envs/cle/share/psi4/basis/aug-cc-pvdz.gbs 
    atoms 7-9, 16-18 entry C          line   182 file /theoryfs2/ds/csargent/miniconda3/envs/cle/share/psi4/basis/aug-cc-pvdz.gbs 


         ---------------------------------------------------------
                                   SCF
               by Justin Turney, Rob Parrish, Andy Simmonett
                          and Daniel G. A. Smith
                              RHF Reference
                        6 Threads,   6675 MiB Core
         ---------------------------------------------------------

  ==> Geometry <==

    Molecular point group: c1
    Full point group: C1

    Geometry (in Bohr), charge = 0, multiplicity = 1:

       Center              X                  Y                   Z               Mass       
    ------------   -----------------  -----------------  -----------------  -----------------
      Gh(N)           6.279812100000    -4.253033720000     0.193138650000    14.003074004430
      Gh(N)           6.068707770000    -2.281256970000     1.805443170000    14.003074004430
      Gh(H)           3.668711560000    -5.646289410000    -1.966840010000     1.007825032230
      Gh(H)           0.690345210000    -2.375456940000    -0.428642360000     1.007825032230
      Gh(H)           3.359174420000     0.176506010000     3.092650170000     1.007825032230
      Gh(H)           7.352667820000    -1.994613110000     2.906807020000     1.007825032230
      Gh(C)           3.779525860000    -1.215084530000     1.768581720000    12.000000000000
      Gh(C)           2.382429980000    -2.555055380000     0.046076810000    12.000000000000
      Gh(C)           4.017714680000    -4.384104900000    -0.887618630000    12.000000000000
         N           33.751852290000     9.600547450000    27.186088310000    14.003074004430
         N           33.870714550000     7.562640410000    25.648914590000    14.003074004430
         H           36.425015030000    12.001457420000    27.904118660000     1.007825032230
         H           39.319651580000     9.558918670000    25.148981160000     1.007825032230
         H           36.383227510000     5.845869660000    23.244344850000     1.007825032230
         H           32.408306340000     6.752663360000    25.263149260000     1.007825032230
         C           36.153550950000     7.232464740000    24.619865740000    12.000000000000
         C           37.636543390000     9.162136960000    25.509788210000    12.000000000000
         C           36.075238060000    10.547304770000    27.101486160000    12.000000000000

  Running in c1 symmetry.

  Rotational constants: A =      0.03632  B =      0.00044  C =      0.00043 [cm^-1]
  Rotational constants: A =   1088.84889  B =     13.09055  C =     12.94991 [MHz]
  Nuclear repulsion =  166.628602750945618

  Charge       = 0
  Multiplicity = 1
  Electrons    = 36
  Nalpha       = 18
  Nbeta        = 18

  ==> Algorithm <==

  SCF Algorithm Type is DF.
  DIIS enabled.
  MOM disabled.
  Fractional occupation disabled.
  Guess Type is SAD.
  Energy threshold   = 1.00e-10
  Density threshold  = 1.00e-10
  Integral threshold = 1.00e-12

  ==> Primary Basis <==

  Basis Set: AUG-CC-PVDZ
    Blend: AUG-CC-PVDZ
    Number of shells: 130
    Number of basis functions: 302
    Number of Cartesian functions: 322
    Spherical Harmonics?: true
    Max angular momentum: 2

   => Loading Basis Set <=

    Name: (AUG-CC-PVDZ AUX)
    Role: JKFIT
    Keyword: DF_BASIS_SCF
    atoms 1-2, 10-11 entry N          line   212 file /theoryfs2/ds/csargent/miniconda3/envs/cle/share/psi4/basis/aug-cc-pvdz-jkfit.gbs 
    atoms 3-6, 12-15 entry H          line    70 file /theoryfs2/ds/csargent/miniconda3/envs/cle/share/psi4/basis/aug-cc-pvdz-jkfit.gbs 
    atoms 7-9, 16-18 entry C          line   154 file /theoryfs2/ds/csargent/miniconda3/envs/cle/share/psi4/basis/aug-cc-pvdz-jkfit.gbs 

  ==> Integral Setup <==

  ==> DiskDFJK: Density-Fitted J/K Matrices <==

    J tasked:                  Yes
    K tasked:                  Yes
    wK tasked:                  No
    OpenMP threads:              6
    Integrals threads:           6
    Memory [MiB]:             5006
    Algorithm:                Core
    Integral Cache:           LOAD
    Schwarz Cutoff:          1E-12
    Fitting Condition:       1E-10

   => Auxiliary Basis Set <=

  Basis Set: (AUG-CC-PVDZ AUX)
    Blend: AUG-CC-PVDZ-JKFIT
    Number of shells: 376
    Number of basis functions: 1116
    Number of Cartesian functions: 1290
    Spherical Harmonics?: true
    Max angular momentum: 3

  Minimum eigenvalue in the overlap matrix is 3.0324469513E-05.
  Reciprocal condition number of the overlap matrix is 2.4867199547E-06.
    Using symmetric orthogonalization.

  ==> Pre-Iterations <==

  SCF Guess: Superposition of Atomic Densities via on-the-fly atomic UHF (no occupation information).

   -------------------------
    Irrep   Nso     Nmo    
   -------------------------
     A        302     302 
   -------------------------
    Total     302     302
   -------------------------

  ==> Iterations <==

                           Total Energy        Delta E     RMS |[F,P]|

   @DF-RHF iter SAD:  -224.72250854061440   -2.24723e+02   0.00000e+00 
   @DF-RHF iter   1:  -224.63556595997790    8.69426e-02   1.50490e-03 DIIS
   @DF-RHF iter   2:  -224.73993304723160   -1.04367e-01   6.88620e-04 DIIS
   @DF-RHF iter   3:  -224.76085080057015   -2.09178e-02   1.48614e-04 DIIS
   @DF-RHF iter   4:  -224.76223499923390   -1.38420e-03   6.05151e-05 DIIS
   @DF-RHF iter   5:  -224.76241324373677   -1.78245e-04   1.19848e-05 DIIS
   @DF-RHF iter   6:  -224.76243017688543   -1.69331e-05   4.96323e-06 DIIS
   @DF-RHF iter   7:  -224.76243412472911   -3.94784e-06   2.18627e-06 DIIS
   @DF-RHF iter   8:  -224.76243488426786   -7.59539e-07   1.01631e-06 DIIS
   @DF-RHF iter   9:  -224.76243505177266   -1.67505e-07   2.83280e-07 DIIS
   @DF-RHF iter  10:  -224.76243506059004   -8.81738e-09   8.55270e-08 DIIS
   @DF-RHF iter  11:  -224.76243506127932   -6.89283e-10   1.99678e-08 DIIS
   @DF-RHF iter  12:  -224.76243506132585   -4.65263e-11   5.80973e-09 DIIS
   @DF-RHF iter  13:  -224.76243506132997   -4.12115e-12   2.83582e-09 DIIS
   @DF-RHF iter  14:  -224.76243506133110   -1.13687e-12   9.79833e-10 DIIS
   @DF-RHF iter  15:  -224.76243506133085    2.55795e-13   4.16538e-10 DIIS
   @DF-RHF iter  16:  -224.76243506133096   -1.13687e-13   1.25809e-10 DIIS
   @DF-RHF iter  17:  -224.76243506133133   -3.69482e-13   4.47597e-11 DIIS
  Energy and wave function converged.


  ==> Post-Iterations <==

    Orbital Energies [Eh]
    ---------------------

    Doubly Occupied:                                                      

       1A    -15.636233     2A    -15.592291     3A    -11.279903  
       4A    -11.237759     5A    -11.209884     6A     -1.387001  
       7A     -1.121894     8A     -1.066928     9A     -0.872759  
      10A     -0.837039    11A     -0.757272    12A     -0.645745  
      13A     -0.620828    14A     -0.609177    15A     -0.583905  
      16A     -0.461413    17A     -0.370715    18A     -0.346055  

    Virtual:                                                              

      19A      0.022444    20A      0.030764    21A      0.039805  
      22A      0.042369    23A      0.043893    24A      0.049158  
      25A      0.063519    26A      0.065628    27A      0.083747  
      28A      0.090487    29A      0.098718    30A      0.101001  
      31A      0.104028    32A      0.117186    33A      0.118139  
      34A      0.125620    35A      0.126272    36A      0.128056  
      37A      0.133070    38A      0.133149    39A      0.133912  
      40A      0.138399    41A      0.141487    42A      0.156889  
      43A      0.158342    44A      0.164594    45A      0.165729  
      46A      0.171081    47A      0.178407    48A      0.178945  
      49A      0.195237    50A      0.196040    51A      0.201228  
      52A      0.204806    53A      0.206166    54A      0.222673  
      55A      0.224911    56A      0.228019    57A      0.235309  
      58A      0.240240    59A      0.243627    60A      0.244965  
      61A      0.263811    62A      0.270747    63A      0.271138  
      64A      0.279081    65A      0.301024    66A      0.321679  
      67A      0.325138    68A      0.339873    69A      0.352354  
      70A      0.355359    71A      0.366308    72A      0.372692  
      73A      0.374909    74A      0.383516    75A      0.396062  
      76A      0.402744    77A      0.415005    78A      0.427247  
      79A      0.431853    80A      0.432131    81A      0.440993  
      82A      0.442140    83A      0.443379    84A      0.453414  
      85A      0.455764    86A      0.457205    87A      0.459816  
      88A      0.461650    89A      0.478656    90A      0.498544  
      91A      0.508693    92A      0.509503    93A      0.519178  
      94A      0.521953    95A      0.532897    96A      0.537835  
      97A      0.541569    98A      0.559099    99A      0.568567  
     100A      0.571641   101A      0.574428   102A      0.586322  
     103A      0.590547   104A      0.594973   105A      0.602431  
     106A      0.613160   107A      0.620974   108A      0.621019  
     109A      0.633312   110A      0.646111   111A      0.655304  
     112A      0.676168   113A      0.690635   114A      0.698039  
     115A      0.700384   116A      0.707590   117A      0.719237  
     118A      0.721648   119A      0.725121   120A      0.735472  
     121A      0.745166   122A      0.747717   123A      0.758643  
     124A      0.773300   125A      0.781476   126A      0.789473  
     127A      0.797901   128A      0.814251   129A      0.820719  
     130A      0.828513   131A      0.838238   132A      0.848382  
     133A      0.851755   134A      0.854904   135A      0.870830  
     136A      0.880880   137A      0.881396   138A      0.888762  
     139A      0.895486   140A      0.906950   141A      0.915942  
     142A      0.924803   143A      0.942599   144A      0.951886  
     145A      0.978204   146A      0.984853   147A      0.996985  
     148A      1.011170   149A      1.024010   150A      1.030045  
     151A      1.046624   152A      1.051465   153A      1.066503  
     154A      1.070985   155A      1.080837   156A      1.100853  
     157A      1.108006   158A      1.128099   159A      1.134152  
     160A      1.150240   161A      1.158625   162A      1.166131  
     163A      1.175167   164A      1.184832   165A      1.220538  
     166A      1.221546   167A      1.236882   168A      1.267841  
     169A      1.269573   170A      1.293566   171A      1.303390  
     172A      1.311431   173A      1.315006   174A      1.340558  
     175A      1.365802   176A      1.381704   177A      1.401039  
     178A      1.434845   179A      1.444575   180A      1.474706  
     181A      1.493088   182A      1.506883   183A      1.512021  
     184A      1.526136   185A      1.560976   186A      1.590889  
     187A      1.608679   188A      1.637435   189A      1.669494  
     190A      1.676578   191A      1.688754   192A      1.703636  
     193A      1.723957   194A      1.749249   195A      1.764367  
     196A      1.805025   197A      1.875589   198A      1.932406  
     199A      1.943562   200A      1.988139   201A      2.021453  
     202A      2.040990   203A      2.057662   204A      2.088810  
     205A      2.108996   206A      2.134756   207A      2.144708  
     208A      2.168056   209A      2.189999   210A      2.200828  
     211A      2.216556   212A      2.230454   213A      2.233783  
     214A      2.261784   215A      2.275832   216A      2.277672  
     217A      2.289183   218A      2.307637   219A      2.335620  
     220A      2.360646   221A      2.380491   222A      2.389121  
     223A      2.393758   224A      2.394452   225A      2.435199  
     226A      2.443797   227A      2.464942   228A      2.478246  
     229A      2.499832   230A      2.513470   231A      2.531785  
     232A      2.548744   233A      2.570195   234A      2.584820  
     235A      2.631242   236A      2.642959   237A      2.667421  
     238A      2.702910   239A      2.718800   240A      2.733013  
     241A      2.826807   242A      2.827825   243A      2.834707  
     244A      2.869683   245A      2.889949   246A      2.901543  
     247A      2.918563   248A      2.945050   249A      2.999195  
     250A      3.027977   251A      3.055311   252A      3.089734  
     253A      3.092440   254A      3.122703   255A      3.139948  
     256A      3.181873   257A      3.189011   258A      3.222030  
     259A      3.254029   260A      3.289079   261A      3.297913  
     262A      3.355649   263A      3.380219   264A      3.395484  
     265A      3.423368   266A      3.448201   267A      3.487069  
     268A      3.497433   269A      3.520764   270A      3.633441  
     271A      3.666840   272A      3.686295   273A      3.735523  
     274A      3.769962   275A      3.851031   276A      3.889250  
     277A      3.964313   278A      4.035384   279A      4.094646  
     280A      4.209312   281A      4.243983   282A      4.448329  
     283A      4.463032   284A      4.658297   285A      4.707926  
     286A      4.749853   287A      4.810679   288A      4.994773  
     289A      5.076695   290A      5.241359   291A      5.531144  
     292A      5.668837   293A      5.826755   294A      6.106594  
     295A      6.318267   296A      6.708302   297A      6.967756  
     298A     18.111124   299A     18.647788   300A     19.373531  
     301A     25.245428   302A     25.704827  

    Final Occupation by Irrep:
              A 
    DOCC [    18 ]

  @DF-RHF Final Energy:  -224.76243506133133

   => Energetics <=

    Nuclear Repulsion Energy =            166.6286027509456176
    One-Electron Energy =                -633.5084732794560978
    Two-Electron Energy =                 242.1174354671791491
    Total Energy =                       -224.7624350613313311

Computation Completed


Properties will be evaluated at   0.000000,   0.000000,   0.000000 [a0]

Properties computed using the SCF density matrix

  Nuclear Dipole Moment: [e a0]
     X:  1277.0862      Y:   315.9527      Z:   934.7925

  Electronic Dipole Moment: [e a0]
     X: -1276.7952      Y:  -316.5167      Z:  -935.4956

  Dipole Moment: [e a0]
     X:     0.2909      Y:    -0.5640      Z:    -0.7031     Total:     0.9472

  Dipole Moment: [D]
     X:     0.7394      Y:    -1.4336      Z:    -1.7871     Total:     2.4074


*** tstop() called on ds1 at Mon Oct  4 14:25:35 2021
Module time:
	user time   =      16.42 seconds =       0.27 minutes
	system time =       0.32 seconds =       0.01 minutes
	total time  =          4 seconds =       0.07 minutes
Total time:
	user time   =      55.83 seconds =       0.93 minutes
	system time =       1.24 seconds =       0.02 minutes
	total time  =         12 seconds =       0.20 minutes
  Constructing Basis Sets for SAPT...

   => Loading Basis Set <=

    Name: (AUG-CC-PVDZ AUX)
    Role: RIFIT
    Keyword: DF_BASIS_SAPT
    atoms 1-2, 10-11 entry N          line   158 file /theoryfs2/ds/csargent/miniconda3/envs/cle/share/psi4/basis/aug-cc-pvdz-ri.gbs 
    atoms 3-6, 12-15 entry H          line    30 file /theoryfs2/ds/csargent/miniconda3/envs/cle/share/psi4/basis/aug-cc-pvdz-ri.gbs 
    atoms 7-9, 16-18 entry C          line   112 file /theoryfs2/ds/csargent/miniconda3/envs/cle/share/psi4/basis/aug-cc-pvdz-ri.gbs 


  //>>>>>>>>>>>>>>>>>>>>>>>>>>>>>>>>>>>//
  //               SAPT0               //
  //<<<<<<<<<<<<<<<<<<<<<<<<<<<<<<<<<<<//


*** tstart() called on ds1
*** at Mon Oct  4 14:25:35 2021

        SAPT0  
    Ed Hohenstein
     6 June 2009

      Orbital Information
  --------------------------
    NSO        =       302
    NMO        =       302
    NRI        =       904
    NOCC A     =        18
    NOCC B     =        18
    FOCC A     =         5
    FOCC B     =         5
    NVIR A     =       284
    NVIR B     =       284

    Elst10,r            =    -0.000006742950 [Eh]
    Exch10              =     0.000000000000 [Eh]
    Exch10 (S^2)        =     0.000000000000 [Eh]

    Iter     Energy [mEh]          dE [mEh]         Residual      Time [s]
       1      -0.00001000       0.000009999       0.038452855             0
       2      -0.00000904      -0.000000956       0.008484440             0
       3      -0.00001013       0.000001088       0.002837273             0
       4      -0.00001018       0.000000050       0.001318685             0
       5      -0.00001015      -0.000000035       0.000634069             0
       6      -0.00001014      -0.000000009       0.000200210             0
       7      -0.00001014       0.000000003       0.000089600             1
       8      -0.00001014       0.000000003       0.000020743             1
       9      -0.00001014      -0.000000001       0.000008979             1
      10      -0.00001014      -0.000000000       0.000002830             1
      11      -0.00001014       0.000000000       0.000000991             1

    CHF Iterations converged


    Iter     Energy [mEh]          dE [mEh]         Residual      Time [s]
       1      -0.00000887       0.000008868       0.034834394             0
       2      -0.00000805      -0.000000819       0.008106227             0
       3      -0.00000887       0.000000822       0.003479412             0
       4      -0.00000901       0.000000139       0.001112115             1
       5      -0.00000897      -0.000000043       0.000592773             1
       6      -0.00000896      -0.000000007       0.000190835             1
       7      -0.00000896       0.000000003       0.000075407             1
       8      -0.00000896       0.000000001       0.000025967             1
       9      -0.00000896      -0.000000000       0.000009827             1
      10      -0.00000896      -0.000000000       0.000002730             1
      11      -0.00000896       0.000000000       0.000001213             1
      12      -0.00000896       0.000000000       0.000000375             2

    CHF Iterations converged

    Ind20,r (A<-B)      =    -0.000000010141 [Eh]
    Ind20,r (B<-A)      =    -0.000000008964 [Eh]
    Ind20,r             =    -0.000000019105 [Eh]
    Exch-Ind20,r (A<-B) =     0.000000000000 [Eh]
    Exch-Ind20,r (B<-A) =     0.000000000000 [Eh]
    Exch-Ind20,r        =     0.000000000000 [Eh]
    Disp20              =    -0.000000233237 [Eh]
    Disp20 (SS)         =    -0.000000116619 [Eh]
    Disp20 (OS)         =    -0.000000116619 [Eh]
    Exch-Disp20         =     0.000000000000 [Eh]
    Exch-Disp20 (SS)    =     0.000000000000 [Eh]
    Exch-Disp20 (OS)    =     0.000000000000 [Eh]

    SAPT Results 
  --------------------------------------------------------------------------------------------------------
    Electrostatics                 -0.00674295 [mEh]      -0.00423127 [kcal/mol]      -0.01770361 [kJ/mol]
      Elst10,r                     -0.00674295 [mEh]      -0.00423127 [kcal/mol]      -0.01770361 [kJ/mol]

    Exchange                        0.00000000 [mEh]       0.00000000 [kcal/mol]       0.00000000 [kJ/mol]
      Exch10                        0.00000000 [mEh]       0.00000000 [kcal/mol]       0.00000000 [kJ/mol]
      Exch10(S^2)                   0.00000000 [mEh]       0.00000000 [kcal/mol]       0.00000000 [kJ/mol]

    Induction                       0.00002048 [mEh]       0.00001285 [kcal/mol]       0.00005376 [kJ/mol]
      Ind20,r                      -0.00001911 [mEh]      -0.00001199 [kcal/mol]      -0.00005016 [kJ/mol]
      Exch-Ind20,r                  0.00000000 [mEh]       0.00000000 [kcal/mol]       0.00000000 [kJ/mol]
      delta HF,r (2)                0.00003958 [mEh]       0.00002484 [kcal/mol]       0.00010393 [kJ/mol]

    Dispersion                     -0.00023324 [mEh]      -0.00014636 [kcal/mol]      -0.00061236 [kJ/mol]
      Disp20                       -0.00023324 [mEh]      -0.00014636 [kcal/mol]      -0.00061236 [kJ/mol]
      Exch-Disp20                   0.00000000 [mEh]       0.00000000 [kcal/mol]       0.00000000 [kJ/mol]
      Disp20 (SS)                  -0.00011662 [mEh]      -0.00007318 [kcal/mol]      -0.00030618 [kJ/mol]
      Disp20 (OS)                  -0.00011662 [mEh]      -0.00007318 [kcal/mol]      -0.00030618 [kJ/mol]
      Exch-Disp20 (SS)              0.00000000 [mEh]       0.00000000 [kcal/mol]       0.00000000 [kJ/mol]
      Exch-Disp20 (OS)              0.00000000 [mEh]       0.00000000 [kcal/mol]       0.00000000 [kJ/mol]

  Total HF                         -0.00672247 [mEh]      -0.00421842 [kcal/mol]      -0.01764985 [kJ/mol]
  Total SAPT0                      -0.00695571 [mEh]      -0.00436477 [kcal/mol]      -0.01826221 [kJ/mol]

  Special recipe for scaled SAPT0 (see Manual):
    Electrostatics sSAPT0          -0.00674295 [mEh]      -0.00423127 [kcal/mol]      -0.01770361 [kJ/mol]
    Exchange sSAPT0                 0.00000000 [mEh]       0.00000000 [kcal/mol]       0.00000000 [kJ/mol]
    Induction sSAPT0                0.00002048 [mEh]       0.00001285 [kcal/mol]       0.00005376 [kJ/mol]
    Dispersion sSAPT0              -0.00023324 [mEh]      -0.00014636 [kcal/mol]      -0.00061236 [kJ/mol]
  Total sSAPT0                     -0.00695571 [mEh]      -0.00436477 [kcal/mol]      -0.01826221 [kJ/mol]
  --------------------------------------------------------------------------------------------------------

*** tstop() called on ds1 at Mon Oct  4 14:25:44 2021
Module time:
	user time   =      44.44 seconds =       0.74 minutes
	system time =       3.92 seconds =       0.07 minutes
	total time  =          9 seconds =       0.15 minutes
Total time:
	user time   =     101.04 seconds =       1.68 minutes
	system time =       5.19 seconds =       0.09 minutes
	total time  =         21 seconds =       0.35 minutes


Warning! sapt0 does not have an associated derived wavefunction.The returned wavefunction is the dimer SCF wavefunction.


    Psi4 stopped on: Monday, 04 October 2021 02:25PM
    Psi4 wall time for execution: 0:00:21.59

*** Psi4 exiting successfully. Buy a developer a beer!
