
    -----------------------------------------------------------------------
          Psi4: An Open-Source Ab Initio Electronic Structure Package
                               Psi4 1.4rc3 

                         Git: Rev {HEAD} 080dba6 


    D. G. A. Smith, L. A. Burns, A. C. Simmonett, R. M. Parrish,
    M. C. Schieber, R. Galvelis, P. Kraus, H. Kruse, R. Di Remigio,
    A. Alenaizan, A. M. James, S. Lehtola, J. P. Misiewicz, M. Scheurer,
    R. A. Shaw, J. B. Schriber, Y. Xie, Z. L. Glick, D. A. Sirianni,
    J. S. O'Brien, J. M. Waldrop, A. Kumar, E. G. Hohenstein,
    B. P. Pritchard, B. R. Brooks, H. F. Schaefer III, A. Yu. Sokolov,
    K. Patkowski, A. E. DePrince III, U. Bozkaya, R. A. King,
    F. A. Evangelista, J. M. Turney, T. D. Crawford, C. D. Sherrill,
    J. Chem. Phys. 152(18) 184108 (2020). https://doi.org/10.1063/5.0006002

                            Additional Code Authors
    E. T. Seidl, C. L. Janssen, E. F. Valeev, M. L. Leininger,
    J. F. Gonthier, R. M. Richard, H. R. McAlexander, M. Saitow, X. Wang,
    P. Verma, and M. H. Lechner

             Previous Authors, Complete List of Code Contributors,
                       and Citations for Specific Modules
    https://github.com/psi4/psi4/blob/master/codemeta.json
    https://github.com/psi4/psi4/graphs/contributors
    http://psicode.org/psi4manual/master/introduction.html#citing-psifour

    -----------------------------------------------------------------------


    Psi4 started on: Monday, 04 October 2021 02:08PM

    Process ID: 9669
    Host:       ds1
    PSIDATADIR: /theoryfs2/ds/csargent/miniconda3/envs/cle/share/psi4
    Memory:     500.0 MiB
    Threads:    6
    
  ==> Input File <==

--------------------------------------------------------------------------
# PSI4 file produced by CrystaLattE

# Generated from:               pyrazole.xyz
# Psithon input for N-mer:      2mer-0+513
# Number of atoms per monomer:  [9, 9]
# Number of replicas:           2
# COM priority:                 1.154728051773e-05
# Minimum COM separations:      23.412 
# Separation priority:          1.857435869358e-05
# Minimum monomer separations:  19.982 
# Cutoff priority:              4.919093800699e-07
# Nuclear repulsion energy:     362.5688741232214

memory 7 GB

molecule Dimer_0_513 {
  N            6.27981210      -4.25303372       0.19313865 
  N            6.06870777      -2.28125697       1.80544317 
  H            3.66871156      -5.64628941      -1.96684001 
  H            0.69034521      -2.37545694      -0.42864236 
  H            3.35917442       0.17650601       3.09265017 
  H            7.35266782      -1.99461311       2.90680702 
  C            3.77952586      -1.21508453       1.76858172 
  C            2.38242998      -2.55505538       0.04607681 
  C            4.01771468      -4.38410490      -0.88761863 
--
  N          -16.93547335       4.36055490      38.25028331 
  N          -17.14657768       2.38877815      36.63797879 
  H          -19.54657389       5.75381059      40.41026197 
  H          -22.52494025       2.48297813      38.87206432 
  H          -19.85611103      -0.06898483      35.35077179 
  H          -15.86261763       2.10213429      35.53661494 
  C          -19.43575960       1.32260571      36.67484024 
  C          -20.83285547       2.66257657      38.39734514 
  C          -19.19757077       4.49162608      39.33104059 
units = au
no_com
no_reorient
}

set {
  e_convergence 10
  d_convergence 10
  scf_type df
  mp2_type df
  cc_type df
  freeze_core true
}

energy('sapt0/aug-cc-pvdz')

--------------------------------------------------------------------------

  Memory set to   6.519 GiB by Python driver.

Scratch directory: /scratch/csargent/psi4.7158.66302/

Scratch directory: /scratch/csargent/psi4.7158.66302/

  //>>>>>>>>>>>>>>>>>>>>>>>>>>>>>>>>>>>//
  //              Dimer HF             //
  //<<<<<<<<<<<<<<<<<<<<<<<<<<<<<<<<<<<//


*** tstart() called on ds1
*** at Mon Oct  4 14:08:48 2021

   => Loading Basis Set <=

    Name: AUG-CC-PVDZ
    Role: ORBITAL
    Keyword: BASIS
    atoms 1-2, 10-11 entry N          line   218 file /theoryfs2/ds/csargent/miniconda3/envs/cle/share/psi4/basis/aug-cc-pvdz.gbs 
    atoms 3-6, 12-15 entry H          line    40 file /theoryfs2/ds/csargent/miniconda3/envs/cle/share/psi4/basis/aug-cc-pvdz.gbs 
    atoms 7-9, 16-18 entry C          line   182 file /theoryfs2/ds/csargent/miniconda3/envs/cle/share/psi4/basis/aug-cc-pvdz.gbs 


         ---------------------------------------------------------
                                   SCF
               by Justin Turney, Rob Parrish, Andy Simmonett
                          and Daniel G. A. Smith
                              RHF Reference
                        6 Threads,   6675 MiB Core
         ---------------------------------------------------------

  ==> Geometry <==

    Molecular point group: c1
    Full point group: C1

    Geometry (in Bohr), charge = 0, multiplicity = 1:

       Center              X                  Y                   Z               Mass       
    ------------   -----------------  -----------------  -----------------  -----------------
         N            6.279812100000    -4.253033720000     0.193138650000    14.003074004430
         N            6.068707770000    -2.281256970000     1.805443170000    14.003074004430
         H            3.668711560000    -5.646289410000    -1.966840010000     1.007825032230
         H            0.690345210000    -2.375456940000    -0.428642360000     1.007825032230
         H            3.359174420000     0.176506010000     3.092650170000     1.007825032230
         H            7.352667820000    -1.994613110000     2.906807020000     1.007825032230
         C            3.779525860000    -1.215084530000     1.768581720000    12.000000000000
         C            2.382429980000    -2.555055380000     0.046076810000    12.000000000000
         C            4.017714680000    -4.384104900000    -0.887618630000    12.000000000000
         N          -16.935473350000     4.360554900000    38.250283310000    14.003074004430
         N          -17.146577680000     2.388778150000    36.637978790000    14.003074004430
         H          -19.546573890000     5.753810590000    40.410261970000     1.007825032230
         H          -22.524940250000     2.482978130000    38.872064320000     1.007825032230
         H          -19.856111030000    -0.068984830000    35.350771790000     1.007825032230
         H          -15.862617630000     2.102134290000    35.536614940000     1.007825032230
         C          -19.435759600000     1.322605710000    36.674840240000    12.000000000000
         C          -20.832855470000     2.662576570000    38.397345140000    12.000000000000
         C          -19.197570770000     4.491626080000    39.331040590000    12.000000000000

  Running in c1 symmetry.

  Rotational constants: A =      0.02577  B =      0.00049  C =      0.00049 [cm^-1]
  Rotational constants: A =    772.45198  B =     14.75473  C =     14.54758 [MHz]
  Nuclear repulsion =  362.568874104198414

  Charge       = 0
  Multiplicity = 1
  Electrons    = 72
  Nalpha       = 36
  Nbeta        = 36

  ==> Algorithm <==

  SCF Algorithm Type is DF.
  DIIS enabled.
  MOM disabled.
  Fractional occupation disabled.
  Guess Type is SAD.
  Energy threshold   = 1.00e-10
  Density threshold  = 1.00e-10
  Integral threshold = 1.00e-12

  ==> Primary Basis <==

  Basis Set: AUG-CC-PVDZ
    Blend: AUG-CC-PVDZ
    Number of shells: 130
    Number of basis functions: 302
    Number of Cartesian functions: 322
    Spherical Harmonics?: true
    Max angular momentum: 2

   => Loading Basis Set <=

    Name: (AUG-CC-PVDZ AUX)
    Role: JKFIT
    Keyword: DF_BASIS_SCF
    atoms 1-2, 10-11 entry N          line   212 file /theoryfs2/ds/csargent/miniconda3/envs/cle/share/psi4/basis/aug-cc-pvdz-jkfit.gbs 
    atoms 3-6, 12-15 entry H          line    70 file /theoryfs2/ds/csargent/miniconda3/envs/cle/share/psi4/basis/aug-cc-pvdz-jkfit.gbs 
    atoms 7-9, 16-18 entry C          line   154 file /theoryfs2/ds/csargent/miniconda3/envs/cle/share/psi4/basis/aug-cc-pvdz-jkfit.gbs 

  ==> Integral Setup <==

  ==> DiskDFJK: Density-Fitted J/K Matrices <==

    J tasked:                  Yes
    K tasked:                  Yes
    wK tasked:                  No
    OpenMP threads:              6
    Integrals threads:           6
    Memory [MiB]:             5006
    Algorithm:                Core
    Integral Cache:           SAVE
    Schwarz Cutoff:          1E-12
    Fitting Condition:       1E-10

   => Auxiliary Basis Set <=

  Basis Set: (AUG-CC-PVDZ AUX)
    Blend: AUG-CC-PVDZ-JKFIT
    Number of shells: 376
    Number of basis functions: 1116
    Number of Cartesian functions: 1290
    Spherical Harmonics?: true
    Max angular momentum: 3

  Minimum eigenvalue in the overlap matrix is 3.0333777128E-05.
  Reciprocal condition number of the overlap matrix is 2.4874860242E-06.
    Using symmetric orthogonalization.

  ==> Pre-Iterations <==

  SCF Guess: Superposition of Atomic Densities via on-the-fly atomic UHF (no occupation information).

   -------------------------
    Irrep   Nso     Nmo    
   -------------------------
     A        302     302 
   -------------------------
    Total     302     302
   -------------------------

  ==> Iterations <==

                           Total Energy        Delta E     RMS |[F,P]|

   @DF-RHF iter SAD:  -449.44389602533977   -4.49444e+02   0.00000e+00 
   @DF-RHF iter   1:  -449.27097134723147    1.72925e-01   2.12804e-03 DIIS
   @DF-RHF iter   2:  -449.47968062418715   -2.08709e-01   9.73727e-04 DIIS
   @DF-RHF iter   3:  -449.52150614249217   -4.18255e-02   2.10236e-04 DIIS
   @DF-RHF iter   4:  -449.52427566883335   -2.76953e-03   8.56431e-05 DIIS
   @DF-RHF iter   5:  -449.52463268464510   -3.57016e-04   1.69555e-05 DIIS
   @DF-RHF iter   6:  -449.52466660379781   -3.39192e-05   7.02618e-06 DIIS
   @DF-RHF iter   7:  -449.52467451619401   -7.91240e-06   3.09570e-06 DIIS
   @DF-RHF iter   8:  -449.52467603855712   -1.52236e-06   1.43836e-06 DIIS
   @DF-RHF iter   9:  -449.52467637399241   -3.35435e-07   4.00762e-07 DIIS
   @DF-RHF iter  10:  -449.52467639164490   -1.76525e-08   1.20987e-07 DIIS
   @DF-RHF iter  11:  -449.52467639302415   -1.37925e-09   2.82409e-08 DIIS
   @DF-RHF iter  12:  -449.52467639311658   -9.24274e-11   8.21624e-09 DIIS
   @DF-RHF iter  13:  -449.52467639312511   -8.52651e-12   4.00149e-09 DIIS
   @DF-RHF iter  14:  -449.52467639312670   -1.59162e-12   1.37781e-09 DIIS
   @DF-RHF iter  15:  -449.52467639312766   -9.66338e-13   5.87464e-10 DIIS
   @DF-RHF iter  16:  -449.52467639312800   -3.41061e-13   1.78391e-10 DIIS
   @DF-RHF iter  17:  -449.52467639312761    3.97904e-13   6.34789e-11 DIIS
  Energy and wave function converged.


  ==> Post-Iterations <==

    Orbital Energies [Eh]
    ---------------------

    Doubly Occupied:                                                      

       1A    -15.636601     2A    -15.636475     3A    -15.592687  
       4A    -15.592566     5A    -11.280265     6A    -11.280152  
       7A    -11.238154     8A    -11.238039     9A    -11.210254  
      10A    -11.210153    11A     -1.387299    12A     -1.387174  
      13A     -1.122278    14A     -1.122154    15A     -1.067268  
      16A     -1.067157    17A     -0.873141    18A     -0.873022  
      19A     -0.837429    20A     -0.837318    21A     -0.757663  
      22A     -0.757551    23A     -0.646118    24A     -0.646001  
      25A     -0.621200    26A     -0.621093    27A     -0.609516  
      28A     -0.609392    29A     -0.584288    30A     -0.584178  
      31A     -0.461781    32A     -0.461654    33A     -0.371093  
      34A     -0.370975    35A     -0.346418    36A     -0.346305  

    Virtual:                                                              

      37A      0.030364    38A      0.030507    39A      0.042048  
      40A      0.042085    41A      0.048772    42A      0.048911  
      43A      0.063155    44A      0.063266    45A      0.100623  
      46A      0.100734    47A      0.103657    48A      0.103783  
      49A      0.116832    50A      0.116913    51A      0.125902  
      52A      0.126017    53A      0.132691    54A      0.132814  
      55A      0.138074    56A      0.138128    57A      0.141155  
      58A      0.141205    59A      0.156553    60A      0.156607  
      61A      0.164260    62A      0.164321    63A      0.170698  
      64A      0.170824    65A      0.178045    66A      0.178154  
      67A      0.195630    68A      0.195811    69A      0.204401  
      70A      0.204543    71A      0.205766    72A      0.205922  
      73A      0.239875    74A      0.239976    75A      0.243253  
      76A      0.243375    77A      0.244586    78A      0.244721  
      79A      0.270750    80A      0.270878    81A      0.278696  
      82A      0.278839    83A      0.300643    84A      0.300769  
      85A      0.324777    86A      0.324894    87A      0.351984  
      88A      0.352103    89A      0.354999    90A      0.355096  
      91A      0.374537    92A      0.374640    93A      0.395696  
      94A      0.395801    95A      0.402369    96A      0.402486  
      97A      0.414655    98A      0.414721    99A      0.431746  
     100A      0.431882   101A      0.443012   102A      0.443138  
     103A      0.453017   104A      0.453144   105A      0.459452  
     106A      0.459553   107A      0.478269   108A      0.478400  
     109A      0.498175   110A      0.498285   111A      0.508321  
     112A      0.508435   113A      0.521549   114A      0.521657  
     115A      0.541198   116A      0.541300   117A      0.574050  
     118A      0.574180   119A      0.585948   120A      0.586056  
     121A      0.590171   122A      0.590278   123A      0.602046  
     124A      0.602156   125A      0.620590   126A      0.620694  
     127A      0.645748   128A      0.645850   129A      0.654940  
     130A      0.655031   131A      0.675795   132A      0.675901  
     133A      0.697677   134A      0.697784   135A      0.700020  
     136A      0.700134   137A      0.721297   138A      0.721414  
     139A      0.724746   140A      0.724853   141A      0.747340  
     142A      0.747451   143A      0.758228   144A      0.758334  
     145A      0.772951   146A      0.773060   147A      0.781103  
     148A      0.781227   149A      0.828131   150A      0.828254  
     151A      0.837854   152A      0.837974   153A      0.848030  
     154A      0.848137   155A      0.881036   156A      0.881139  
     157A      0.888401   158A      0.888505   159A      0.906583  
     160A      0.906694   161A      0.924437   162A      0.924563  
     163A      0.942213   164A      0.942327   165A      0.977856  
     166A      0.977960   167A      0.984482   168A      0.984594  
     169A      1.010772   170A      1.010901   171A      1.046222  
     172A      1.046360   173A      1.066139   174A      1.066246  
     175A      1.100471   176A      1.100602   177A      1.127690  
     178A      1.127800   179A      1.133821   180A      1.133942  
     181A      1.149869   182A      1.149973   183A      1.174800  
     184A      1.174912   185A      1.220173   186A      1.220296  
     187A      1.269187   188A      1.269300   189A      1.302967  
     190A      1.303091   191A      1.311020   192A      1.311146  
     193A      1.365430   194A      1.365555   195A      1.400680  
     196A      1.400784   197A      1.474310   198A      1.474443  
     199A      1.511649   200A      1.511773   201A      1.525764  
     202A      1.525871   203A      1.560623   204A      1.560733  
     205A      1.590518   206A      1.590621   207A      1.608304  
     208A      1.608409   209A      1.637075   210A      1.637172  
     211A      1.669108   212A      1.669212   213A      1.703262  
     214A      1.703376   215A      1.723579   216A      1.723693  
     217A      1.748846   218A      1.748959   219A      1.764003  
     220A      1.764117   221A      1.804679   222A      1.804792  
     223A      1.875263   224A      1.875373   225A      1.932020  
     226A      1.932135   227A      1.943196   228A      1.943295  
     229A      1.987702   230A      1.987808   231A      2.021074  
     232A      2.021190   233A      2.057241   234A      2.057354  
     235A      2.088466   236A      2.088583   237A      2.144316  
     238A      2.144431   239A      2.189638   240A      2.189747  
     241A      2.200462   242A      2.200569   243A      2.230081  
     244A      2.230202   245A      2.275462   246A      2.275566  
     247A      2.307266   248A      2.307385   249A      2.360350  
     250A      2.360459   251A      2.388757   252A      2.388875  
     253A      2.393434   254A      2.393574   255A      2.434867  
     256A      2.434996   257A      2.464580   258A      2.464718  
     259A      2.531426   260A      2.531542   261A      2.569859  
     262A      2.569976   263A      2.584334   264A      2.584466  
     265A      2.642586   266A      2.642707   267A      2.732654  
     268A      2.732773   269A      2.826466   270A      2.826584  
     271A      2.834379   272A      2.834496   273A      2.901210  
     274A      2.901334   275A      2.918219   276A      2.918347  
     277A      2.998786   278A      2.998901   279A      3.054949  
     280A      3.055070   281A      3.091982   282A      3.092107  
     283A      3.122358   284A      3.122475   285A      3.188561  
     286A      3.188676   287A      3.221638   288A      3.221751  
     289A      3.297491   290A      3.297613   291A      3.379868  
     292A      3.379976   293A      3.520351   294A      3.520475  
     295A      3.686195   296A      3.686306   297A      3.888948  
     298A      3.889077   299A      4.209052   300A      4.209176  
     301A      4.462870   302A      4.462976  

    Final Occupation by Irrep:
              A 
    DOCC [    36 ]

  @DF-RHF Final Energy:  -449.52467639312761

   => Energetics <=

    Nuclear Repulsion Energy =            362.5688741041984144
    One-Electron Energy =               -1325.6174815358308479
    Two-Electron Energy =                 513.5239310385048839
    Total Energy =                       -449.5246763931276064

Computation Completed


Properties will be evaluated at   0.000000,   0.000000,   0.000000 [a0]

Properties computed using the SCF density matrix

  Nuclear Dipole Moment: [e a0]
     X:  -510.5732      Y:     3.8708      Z:  1383.9632

  Electronic Dipole Moment: [e a0]
     X:   509.7678      Y:    -3.8707      Z: -1383.9629

  Dipole Moment: [e a0]
     X:    -0.8054      Y:     0.0000      Z:     0.0003     Total:     0.8054

  Dipole Moment: [D]
     X:    -2.0470      Y:     0.0001      Z:     0.0008     Total:     2.0470


*** tstop() called on ds1 at Mon Oct  4 14:08:53 2021
Module time:
	user time   =      22.45 seconds =       0.37 minutes
	system time =       0.60 seconds =       0.01 minutes
	total time  =          5 seconds =       0.08 minutes
Total time:
	user time   =      22.45 seconds =       0.37 minutes
	system time =       0.60 seconds =       0.01 minutes
	total time  =          5 seconds =       0.08 minutes

  //>>>>>>>>>>>>>>>>>>>>>>>>>>>>>>>>>>>//
  //            Monomer A HF           //
  //<<<<<<<<<<<<<<<<<<<<<<<<<<<<<<<<<<<//


*** tstart() called on ds1
*** at Mon Oct  4 14:08:53 2021

   => Loading Basis Set <=

    Name: AUG-CC-PVDZ
    Role: ORBITAL
    Keyword: BASIS
    atoms 1-2, 10-11 entry N          line   218 file /theoryfs2/ds/csargent/miniconda3/envs/cle/share/psi4/basis/aug-cc-pvdz.gbs 
    atoms 3-6, 12-15 entry H          line    40 file /theoryfs2/ds/csargent/miniconda3/envs/cle/share/psi4/basis/aug-cc-pvdz.gbs 
    atoms 7-9, 16-18 entry C          line   182 file /theoryfs2/ds/csargent/miniconda3/envs/cle/share/psi4/basis/aug-cc-pvdz.gbs 


         ---------------------------------------------------------
                                   SCF
               by Justin Turney, Rob Parrish, Andy Simmonett
                          and Daniel G. A. Smith
                              RHF Reference
                        6 Threads,   6675 MiB Core
         ---------------------------------------------------------

  ==> Geometry <==

    Molecular point group: c1
    Full point group: C1

    Geometry (in Bohr), charge = 0, multiplicity = 1:

       Center              X                  Y                   Z               Mass       
    ------------   -----------------  -----------------  -----------------  -----------------
         N            6.279812100000    -4.253033720000     0.193138650000    14.003074004430
         N            6.068707770000    -2.281256970000     1.805443170000    14.003074004430
         H            3.668711560000    -5.646289410000    -1.966840010000     1.007825032230
         H            0.690345210000    -2.375456940000    -0.428642360000     1.007825032230
         H            3.359174420000     0.176506010000     3.092650170000     1.007825032230
         H            7.352667820000    -1.994613110000     2.906807020000     1.007825032230
         C            3.779525860000    -1.215084530000     1.768581720000    12.000000000000
         C            2.382429980000    -2.555055380000     0.046076810000    12.000000000000
         C            4.017714680000    -4.384104900000    -0.887618630000    12.000000000000
      Gh(N)         -16.935473350000     4.360554900000    38.250283310000    14.003074004430
      Gh(N)         -17.146577680000     2.388778150000    36.637978790000    14.003074004430
      Gh(H)         -19.546573890000     5.753810590000    40.410261970000     1.007825032230
      Gh(H)         -22.524940250000     2.482978130000    38.872064320000     1.007825032230
      Gh(H)         -19.856111030000    -0.068984830000    35.350771790000     1.007825032230
      Gh(H)         -15.862617630000     2.102134290000    35.536614940000     1.007825032230
      Gh(C)         -19.435759600000     1.322605710000    36.674840240000    12.000000000000
      Gh(C)         -20.832855470000     2.662576570000    38.397345140000    12.000000000000
      Gh(C)         -19.197570770000     4.491626080000    39.331040590000    12.000000000000

  Running in c1 symmetry.

  Rotational constants: A =      0.02577  B =      0.00049  C =      0.00049 [cm^-1]
  Rotational constants: A =    772.45198  B =     14.75473  C =     14.54758 [MHz]
  Nuclear repulsion =  166.624056450327203

  Charge       = 0
  Multiplicity = 1
  Electrons    = 36
  Nalpha       = 18
  Nbeta        = 18

  ==> Algorithm <==

  SCF Algorithm Type is DF.
  DIIS enabled.
  MOM disabled.
  Fractional occupation disabled.
  Guess Type is SAD.
  Energy threshold   = 1.00e-10
  Density threshold  = 1.00e-10
  Integral threshold = 1.00e-12

  ==> Primary Basis <==

  Basis Set: AUG-CC-PVDZ
    Blend: AUG-CC-PVDZ
    Number of shells: 130
    Number of basis functions: 302
    Number of Cartesian functions: 322
    Spherical Harmonics?: true
    Max angular momentum: 2

   => Loading Basis Set <=

    Name: (AUG-CC-PVDZ AUX)
    Role: JKFIT
    Keyword: DF_BASIS_SCF
    atoms 1-2, 10-11 entry N          line   212 file /theoryfs2/ds/csargent/miniconda3/envs/cle/share/psi4/basis/aug-cc-pvdz-jkfit.gbs 
    atoms 3-6, 12-15 entry H          line    70 file /theoryfs2/ds/csargent/miniconda3/envs/cle/share/psi4/basis/aug-cc-pvdz-jkfit.gbs 
    atoms 7-9, 16-18 entry C          line   154 file /theoryfs2/ds/csargent/miniconda3/envs/cle/share/psi4/basis/aug-cc-pvdz-jkfit.gbs 

  ==> Integral Setup <==

  ==> DiskDFJK: Density-Fitted J/K Matrices <==

    J tasked:                  Yes
    K tasked:                  Yes
    wK tasked:                  No
    OpenMP threads:              6
    Integrals threads:           6
    Memory [MiB]:             5006
    Algorithm:                Core
    Integral Cache:           LOAD
    Schwarz Cutoff:          1E-12
    Fitting Condition:       1E-10

   => Auxiliary Basis Set <=

  Basis Set: (AUG-CC-PVDZ AUX)
    Blend: AUG-CC-PVDZ-JKFIT
    Number of shells: 376
    Number of basis functions: 1116
    Number of Cartesian functions: 1290
    Spherical Harmonics?: true
    Max angular momentum: 3

  Minimum eigenvalue in the overlap matrix is 3.0333777128E-05.
  Reciprocal condition number of the overlap matrix is 2.4874860242E-06.
    Using symmetric orthogonalization.

  ==> Pre-Iterations <==

  SCF Guess: Superposition of Atomic Densities via on-the-fly atomic UHF (no occupation information).

   -------------------------
    Irrep   Nso     Nmo    
   -------------------------
     A        302     302 
   -------------------------
    Total     302     302
   -------------------------

  ==> Iterations <==

                           Total Energy        Delta E     RMS |[F,P]|

   @DF-RHF iter SAD:  -224.72194801293659   -2.24722e+02   0.00000e+00 
   @DF-RHF iter   1:  -224.63549169984643    8.64563e-02   1.50472e-03 DIIS
   @DF-RHF iter   2:  -224.73984613243732   -1.04354e-01   6.88462e-04 DIIS
   @DF-RHF iter   3:  -224.76075487135500   -2.09087e-02   1.48626e-04 DIIS
   @DF-RHF iter   4:  -224.76213931512675   -1.38444e-03   6.05310e-05 DIIS
   @DF-RHF iter   5:  -224.76231766988545   -1.78355e-04   1.19893e-05 DIIS
   @DF-RHF iter   6:  -224.76233462735871   -1.69575e-05   4.96772e-06 DIIS
   @DF-RHF iter   7:  -224.76233858339626   -3.95604e-06   2.18806e-06 DIIS
   @DF-RHF iter   8:  -224.76233934413847   -7.60742e-07   1.01700e-06 DIIS
   @DF-RHF iter   9:  -224.76233951178031   -1.67642e-07   2.83302e-07 DIIS
   @DF-RHF iter  10:  -224.76233952060073   -8.82042e-09   8.55547e-08 DIIS
   @DF-RHF iter  11:  -224.76233952129076   -6.90022e-10   1.99714e-08 DIIS
   @DF-RHF iter  12:  -224.76233952133691   -4.61569e-11   5.81092e-09 DIIS
   @DF-RHF iter  13:  -224.76233952134149   -4.57590e-12   2.83097e-09 DIIS
   @DF-RHF iter  14:  -224.76233952134208   -5.96856e-13   9.75191e-10 DIIS
   @DF-RHF iter  15:  -224.76233952134234   -2.55795e-13   4.15548e-10 DIIS
   @DF-RHF iter  16:  -224.76233952134211    2.27374e-13   1.25998e-10 DIIS
   @DF-RHF iter  17:  -224.76233952134228   -1.70530e-13   4.47782e-11 DIIS
  Energy and wave function converged.


  ==> Post-Iterations <==

    Orbital Energies [Eh]
    ---------------------

    Doubly Occupied:                                                      

       1A    -15.636223     2A    -15.592313     3A    -11.279894  
       4A    -11.237784     5A    -11.209891     6A     -1.386922  
       7A     -1.121901     8A     -1.066898     9A     -0.872768  
      10A     -0.837061    11A     -0.757292    12A     -0.645746  
      13A     -0.620834    14A     -0.609140    15A     -0.583920  
      16A     -0.461404    17A     -0.370721    18A     -0.346048  

    Virtual:                                                              

      19A      0.022341    20A      0.030764    21A      0.039690  
      22A      0.042368    23A      0.043803    24A      0.049159  
      25A      0.063520    26A      0.065524    27A      0.083644  
      28A      0.090399    29A      0.098624    30A      0.100998  
      31A      0.104029    32A      0.117179    33A      0.118034  
      34A      0.125516    35A      0.126270    36A      0.127940  
      37A      0.133047    38A      0.133069    39A      0.133801  
      40A      0.138403    41A      0.141490    42A      0.156889  
      43A      0.158245    44A      0.164592    45A      0.165624  
      46A      0.171075    47A      0.178408    48A      0.178855  
      49A      0.195144    50A      0.196042    51A      0.201137  
      52A      0.204793    53A      0.206162    54A      0.222588  
      55A      0.224810    56A      0.227929    57A      0.235223  
      58A      0.240236    59A      0.243626    60A      0.244965  
      61A      0.263737    62A      0.270652    63A      0.271127  
      64A      0.279080    65A      0.301010    66A      0.321595  
      67A      0.325148    68A      0.339767    69A      0.352358  
      70A      0.355357    71A      0.366211    72A      0.372591  
      73A      0.374907    74A      0.383414    75A      0.396061  
      76A      0.402741    77A      0.414998    78A      0.427147  
      79A      0.431745    80A      0.432132    81A      0.440883  
      82A      0.442029    83A      0.443385    84A      0.453393  
      85A      0.455666    86A      0.457107    87A      0.459816  
      88A      0.461554    89A      0.478655    90A      0.498543  
      91A      0.508690    92A      0.509398    93A      0.519080  
      94A      0.521917    95A      0.532795    96A      0.537739  
      97A      0.541560    98A      0.559002    99A      0.568470  
     100A      0.571537   101A      0.574432   102A      0.586318  
     103A      0.590538   104A      0.594867   105A      0.602413  
     106A      0.613069   107A      0.620927   108A      0.620953  
     109A      0.633215   110A      0.646110   111A      0.655295  
     112A      0.676162   113A      0.690530   114A      0.698041  
     115A      0.700391   116A      0.707499   117A      0.719136  
     118A      0.721667   119A      0.725115   120A      0.735363  
     121A      0.745070   122A      0.747709   123A      0.758592  
     124A      0.773318   125A      0.781481   126A      0.789384  
     127A      0.797798   128A      0.814150   129A      0.820629  
     130A      0.828504   131A      0.838230   132A      0.848394  
     133A      0.851651   134A      0.854797   135A      0.870730  
     136A      0.880778   137A      0.881395   138A      0.888767  
     139A      0.895385   140A      0.906950   141A      0.915846  
     142A      0.924815   143A      0.942582   144A      0.951793  
     145A      0.978222   146A      0.984850   147A      0.996890  
     148A      1.011149   149A      1.023914   150A      1.029955  
     151A      1.046606   152A      1.051368   153A      1.066503  
     154A      1.070872   155A      1.080744   156A      1.100852  
     157A      1.107914   158A      1.128058   159A      1.134196  
     160A      1.150235   161A      1.158534   162A      1.166044  
     163A      1.175168   164A      1.184739   165A      1.220548  
     166A      1.221454   167A      1.236787   168A      1.267752  
     169A      1.269556   170A      1.293480   171A      1.303342  
     172A      1.311399   173A      1.314916   174A      1.340464  
     175A      1.365807   176A      1.381614   177A      1.401043  
     178A      1.434757   179A      1.444485   180A      1.474691  
     181A      1.492994   182A      1.506792   183A      1.512027  
     184A      1.526129   185A      1.560989   186A      1.590882  
     187A      1.608669   188A      1.637437   189A      1.669472  
     190A      1.676489   191A      1.688666   192A      1.703634  
     193A      1.723950   194A      1.749215   195A      1.764373  
     196A      1.805048   197A      1.875632   198A      1.932390  
     199A      1.943558   200A      1.988067   201A      2.021445  
     202A      2.040888   203A      2.057611   204A      2.088839  
     205A      2.108882   206A      2.134653   207A      2.144687  
     208A      2.167946   209A      2.190005   210A      2.200827  
     211A      2.216452   212A      2.230457   213A      2.233680  
     214A      2.261681   215A      2.275825   216A      2.277575  
     217A      2.289079   218A      2.307640   219A      2.335514  
     220A      2.360716   221A      2.380398   222A      2.389130  
     223A      2.393822   224A      2.394346   225A      2.435246  
     226A      2.443691   227A      2.464967   228A      2.478142  
     229A      2.499727   230A      2.513381   231A      2.531798  
     232A      2.548637   233A      2.570232   234A      2.584716  
     235A      2.631144   236A      2.642961   237A      2.667320  
     238A      2.702810   239A      2.718696   240A      2.733029  
     241A      2.826838   242A      2.827726   243A      2.834751  
     244A      2.869584   245A      2.889844   246A      2.901587  
     247A      2.918598   248A      2.944956   249A      2.999157  
     250A      3.027875   251A      3.055324   252A      3.089636  
     253A      3.092358   254A      3.122730   255A      3.139849  
     256A      3.181778   257A      3.188930   258A      3.222008  
     259A      3.253938   260A      3.288992   261A      3.297865  
     262A      3.355559   263A      3.380235   264A      3.395397  
     265A      3.423274   266A      3.448108   267A      3.486973  
     268A      3.497330   269A      3.520727   270A      3.633362  
     271A      3.666749   272A      3.686563   273A      3.735429  
     274A      3.769873   275A      3.850939   276A      3.889327  
     277A      3.964214   278A      4.035299   279A      4.094555  
     280A      4.209428   281A      4.243889   282A      4.448238  
     283A      4.463235   284A      4.658217   285A      4.707834  
     286A      4.749753   287A      4.810587   288A      4.994679  
     289A      5.076606   290A      5.241262   291A      5.531054  
     292A      5.668749   293A      5.826656   294A      6.106505  
     295A      6.318165   296A      6.708209   297A      6.967667  
     298A     18.111023   299A     18.647690   300A     19.373425  
     301A     25.245349   302A     25.704741  

    Final Occupation by Irrep:
              A 
    DOCC [    18 ]

  @DF-RHF Final Energy:  -224.76233952134228

   => Energetics <=

    Nuclear Repulsion Energy =            166.6240564503272026
    One-Electron Energy =                -633.4992733842436792
    Two-Electron Energy =                 242.1128774125741927
    Total Energy =                       -224.7623395213422839

Computation Completed


Properties will be evaluated at   0.000000,   0.000000,   0.000000 [a0]

Properties computed using the SCF density matrix

  Nuclear Dipole Moment: [e a0]
     X:   162.5886      Y:  -104.5054      Z:    23.1563

  Electronic Dipole Moment: [e a0]
     X:  -162.9913      Y:   105.1370      Z:   -22.5767

  Dipole Moment: [e a0]
     X:    -0.4027      Y:     0.6317      Z:     0.5796     Total:     0.9472

  Dipole Moment: [D]
     X:    -1.0235      Y:     1.6055      Z:     1.4733     Total:     2.4075


*** tstop() called on ds1 at Mon Oct  4 14:08:56 2021
Module time:
	user time   =      15.82 seconds =       0.26 minutes
	system time =       0.30 seconds =       0.01 minutes
	total time  =          3 seconds =       0.05 minutes
Total time:
	user time   =      38.39 seconds =       0.64 minutes
	system time =       0.91 seconds =       0.02 minutes
	total time  =          8 seconds =       0.13 minutes

  //>>>>>>>>>>>>>>>>>>>>>>>>>>>>>>>>>>>//
  //            Monomer B HF           //
  //<<<<<<<<<<<<<<<<<<<<<<<<<<<<<<<<<<<//


*** tstart() called on ds1
*** at Mon Oct  4 14:08:56 2021

   => Loading Basis Set <=

    Name: AUG-CC-PVDZ
    Role: ORBITAL
    Keyword: BASIS
    atoms 1-2, 10-11 entry N          line   218 file /theoryfs2/ds/csargent/miniconda3/envs/cle/share/psi4/basis/aug-cc-pvdz.gbs 
    atoms 3-6, 12-15 entry H          line    40 file /theoryfs2/ds/csargent/miniconda3/envs/cle/share/psi4/basis/aug-cc-pvdz.gbs 
    atoms 7-9, 16-18 entry C          line   182 file /theoryfs2/ds/csargent/miniconda3/envs/cle/share/psi4/basis/aug-cc-pvdz.gbs 


         ---------------------------------------------------------
                                   SCF
               by Justin Turney, Rob Parrish, Andy Simmonett
                          and Daniel G. A. Smith
                              RHF Reference
                        6 Threads,   6675 MiB Core
         ---------------------------------------------------------

  ==> Geometry <==

    Molecular point group: c1
    Full point group: C1

    Geometry (in Bohr), charge = 0, multiplicity = 1:

       Center              X                  Y                   Z               Mass       
    ------------   -----------------  -----------------  -----------------  -----------------
      Gh(N)           6.279812100000    -4.253033720000     0.193138650000    14.003074004430
      Gh(N)           6.068707770000    -2.281256970000     1.805443170000    14.003074004430
      Gh(H)           3.668711560000    -5.646289410000    -1.966840010000     1.007825032230
      Gh(H)           0.690345210000    -2.375456940000    -0.428642360000     1.007825032230
      Gh(H)           3.359174420000     0.176506010000     3.092650170000     1.007825032230
      Gh(H)           7.352667820000    -1.994613110000     2.906807020000     1.007825032230
      Gh(C)           3.779525860000    -1.215084530000     1.768581720000    12.000000000000
      Gh(C)           2.382429980000    -2.555055380000     0.046076810000    12.000000000000
      Gh(C)           4.017714680000    -4.384104900000    -0.887618630000    12.000000000000
         N          -16.935473350000     4.360554900000    38.250283310000    14.003074004430
         N          -17.146577680000     2.388778150000    36.637978790000    14.003074004430
         H          -19.546573890000     5.753810590000    40.410261970000     1.007825032230
         H          -22.524940250000     2.482978130000    38.872064320000     1.007825032230
         H          -19.856111030000    -0.068984830000    35.350771790000     1.007825032230
         H          -15.862617630000     2.102134290000    35.536614940000     1.007825032230
         C          -19.435759600000     1.322605710000    36.674840240000    12.000000000000
         C          -20.832855470000     2.662576570000    38.397345140000    12.000000000000
         C          -19.197570770000     4.491626080000    39.331040590000    12.000000000000

  Running in c1 symmetry.

  Rotational constants: A =      0.02577  B =      0.00049  C =      0.00049 [cm^-1]
  Rotational constants: A =    772.45198  B =     14.75473  C =     14.54758 [MHz]
  Nuclear repulsion =  166.624056421303067

  Charge       = 0
  Multiplicity = 1
  Electrons    = 36
  Nalpha       = 18
  Nbeta        = 18

  ==> Algorithm <==

  SCF Algorithm Type is DF.
  DIIS enabled.
  MOM disabled.
  Fractional occupation disabled.
  Guess Type is SAD.
  Energy threshold   = 1.00e-10
  Density threshold  = 1.00e-10
  Integral threshold = 1.00e-12

  ==> Primary Basis <==

  Basis Set: AUG-CC-PVDZ
    Blend: AUG-CC-PVDZ
    Number of shells: 130
    Number of basis functions: 302
    Number of Cartesian functions: 322
    Spherical Harmonics?: true
    Max angular momentum: 2

   => Loading Basis Set <=

    Name: (AUG-CC-PVDZ AUX)
    Role: JKFIT
    Keyword: DF_BASIS_SCF
    atoms 1-2, 10-11 entry N          line   212 file /theoryfs2/ds/csargent/miniconda3/envs/cle/share/psi4/basis/aug-cc-pvdz-jkfit.gbs 
    atoms 3-6, 12-15 entry H          line    70 file /theoryfs2/ds/csargent/miniconda3/envs/cle/share/psi4/basis/aug-cc-pvdz-jkfit.gbs 
    atoms 7-9, 16-18 entry C          line   154 file /theoryfs2/ds/csargent/miniconda3/envs/cle/share/psi4/basis/aug-cc-pvdz-jkfit.gbs 

  ==> Integral Setup <==

  ==> DiskDFJK: Density-Fitted J/K Matrices <==

    J tasked:                  Yes
    K tasked:                  Yes
    wK tasked:                  No
    OpenMP threads:              6
    Integrals threads:           6
    Memory [MiB]:             5006
    Algorithm:                Core
    Integral Cache:           LOAD
    Schwarz Cutoff:          1E-12
    Fitting Condition:       1E-10

   => Auxiliary Basis Set <=

  Basis Set: (AUG-CC-PVDZ AUX)
    Blend: AUG-CC-PVDZ-JKFIT
    Number of shells: 376
    Number of basis functions: 1116
    Number of Cartesian functions: 1290
    Spherical Harmonics?: true
    Max angular momentum: 3

  Minimum eigenvalue in the overlap matrix is 3.0333777128E-05.
  Reciprocal condition number of the overlap matrix is 2.4874860242E-06.
    Using symmetric orthogonalization.

  ==> Pre-Iterations <==

  SCF Guess: Superposition of Atomic Densities via on-the-fly atomic UHF (no occupation information).

   -------------------------
    Irrep   Nso     Nmo    
   -------------------------
     A        302     302 
   -------------------------
    Total     302     302
   -------------------------

  ==> Iterations <==

                           Total Energy        Delta E     RMS |[F,P]|

   @DF-RHF iter SAD:  -224.72194801133679   -2.24722e+02   0.00000e+00 
   @DF-RHF iter   1:  -224.63549170163986    8.64563e-02   1.50472e-03 DIIS
   @DF-RHF iter   2:  -224.73984613427794   -1.04354e-01   6.88462e-04 DIIS
   @DF-RHF iter   3:  -224.76075487326852   -2.09087e-02   1.48626e-04 DIIS
   @DF-RHF iter   4:  -224.76213931705075   -1.38444e-03   6.05310e-05 DIIS
   @DF-RHF iter   5:  -224.76231767181116   -1.78355e-04   1.19893e-05 DIIS
   @DF-RHF iter   6:  -224.76233462928599   -1.69575e-05   4.96772e-06 DIIS
   @DF-RHF iter   7:  -224.76233858532328   -3.95604e-06   2.18806e-06 DIIS
   @DF-RHF iter   8:  -224.76233934606591   -7.60743e-07   1.01700e-06 DIIS
   @DF-RHF iter   9:  -224.76233951370790   -1.67642e-07   2.83302e-07 DIIS
   @DF-RHF iter  10:  -224.76233952252838   -8.82048e-09   8.55547e-08 DIIS
   @DF-RHF iter  11:  -224.76233952321834   -6.89965e-10   1.99714e-08 DIIS
   @DF-RHF iter  12:  -224.76233952326442   -4.60716e-11   5.81092e-09 DIIS
   @DF-RHF iter  13:  -224.76233952326888   -4.46221e-12   2.83097e-09 DIIS
   @DF-RHF iter  14:  -224.76233952326942   -5.40012e-13   9.75191e-10 DIIS
   @DF-RHF iter  15:  -224.76233952326987   -4.54747e-13   4.15548e-10 DIIS
   @DF-RHF iter  16:  -224.76233952326987    0.00000e+00   1.25998e-10 DIIS
   @DF-RHF iter  17:  -224.76233952326976    1.13687e-13   4.47778e-11 DIIS
  Energy and wave function converged.


  ==> Post-Iterations <==

    Orbital Energies [Eh]
    ---------------------

    Doubly Occupied:                                                      

       1A    -15.636223     2A    -15.592313     3A    -11.279894  
       4A    -11.237784     5A    -11.209891     6A     -1.386922  
       7A     -1.121901     8A     -1.066898     9A     -0.872768  
      10A     -0.837061    11A     -0.757292    12A     -0.645746  
      13A     -0.620834    14A     -0.609140    15A     -0.583920  
      16A     -0.461404    17A     -0.370721    18A     -0.346048  

    Virtual:                                                              

      19A      0.022446    20A      0.030764    21A      0.039791  
      22A      0.042368    23A      0.043909    24A      0.049159  
      25A      0.063520    26A      0.065648    27A      0.083740  
      28A      0.090538    29A      0.098733    30A      0.100998  
      31A      0.104029    32A      0.117179    33A      0.118117  
      34A      0.125598    35A      0.126270    36A      0.128004  
      37A      0.133069    38A      0.133143    39A      0.133883  
      40A      0.138403    41A      0.141490    42A      0.156889  
      43A      0.158311    44A      0.164592    45A      0.165726  
      46A      0.171075    47A      0.178408    48A      0.178978  
      49A      0.195287    50A      0.196042    51A      0.201296  
      52A      0.204793    53A      0.206162    54A      0.222740  
      55A      0.224909    56A      0.228042    57A      0.235366  
      58A      0.240236    59A      0.243626    60A      0.244965  
      61A      0.263868    62A      0.270803    63A      0.271127  
      64A      0.279080    65A      0.301010    66A      0.321722  
      67A      0.325148    68A      0.339866    69A      0.352358  
      70A      0.355357    71A      0.366330    72A      0.372679  
      73A      0.374907    74A      0.383506    75A      0.396061  
      76A      0.402741    77A      0.414998    78A      0.427269  
      79A      0.431840    80A      0.432132    81A      0.440950  
      82A      0.442104    83A      0.443385    84A      0.453393  
      85A      0.455797    86A      0.457214    87A      0.459816  
      88A      0.461681    89A      0.478655    90A      0.498543  
      91A      0.508690    92A      0.509515    93A      0.519223  
      94A      0.521917    95A      0.532930    96A      0.537835  
      97A      0.541560    98A      0.559114    99A      0.568631  
     100A      0.571625   101A      0.574432   102A      0.586318  
     103A      0.590538   104A      0.594958   105A      0.602413  
     106A      0.613166   107A      0.620953   108A      0.621051  
     109A      0.633324   110A      0.646110   111A      0.655295  
     112A      0.676162   113A      0.690630   114A      0.698041  
     115A      0.700391   116A      0.707620   117A      0.719241  
     118A      0.721667   119A      0.725115   120A      0.735458  
     121A      0.745162   122A      0.747709   123A      0.758592  
     124A      0.773318   125A      0.781481   126A      0.789507  
     127A      0.797916   128A      0.814247   129A      0.820736  
     130A      0.828504   131A      0.838230   132A      0.848393  
     133A      0.851737   134A      0.854903   135A      0.870819  
     136A      0.880871   137A      0.881395   138A      0.888767  
     139A      0.895487   140A      0.906950   141A      0.915969  
     142A      0.924815   143A      0.942582   144A      0.951916  
     145A      0.978222   146A      0.984850   147A      0.997007  
     148A      1.011149   149A      1.024015   150A      1.030091  
     151A      1.046606   152A      1.051497   153A      1.066503  
     154A      1.070954   155A      1.080835   156A      1.100852  
     157A      1.108045   158A      1.128058   159A      1.134196  
     160A      1.150235   161A      1.158669   162A      1.166175  
     163A      1.175168   164A      1.184854   165A      1.220548  
     166A      1.221607   167A      1.236920   168A      1.267884  
     169A      1.269556   170A      1.293633   171A      1.303342  
     172A      1.311399   173A      1.315041   174A      1.340582  
     175A      1.365807   176A      1.381737   177A      1.401043  
     178A      1.434905   179A      1.444626   180A      1.474691  
     181A      1.493133   182A      1.506934   183A      1.512027  
     184A      1.526129   185A      1.560989   186A      1.590882  
     187A      1.608669   188A      1.637437   189A      1.669472  
     190A      1.676632   191A      1.688815   192A      1.703634  
     193A      1.723950   194A      1.749215   195A      1.764373  
     196A      1.805048   197A      1.875632   198A      1.932390  
     199A      1.943558   200A      1.988067   201A      2.021445  
     202A      2.040975   203A      2.057611   204A      2.088839  
     205A      2.108972   206A      2.134742   207A      2.144687  
     208A      2.168008   209A      2.190005   210A      2.200827  
     211A      2.216549   212A      2.230457   213A      2.233764  
     214A      2.261771   215A      2.275825   216A      2.277664  
     217A      2.289171   218A      2.307640   219A      2.335616  
     220A      2.360716   221A      2.380490   222A      2.389130  
     223A      2.393822   224A      2.394446   225A      2.435246  
     226A      2.443787   227A      2.464967   228A      2.478229  
     229A      2.499799   230A      2.513547   231A      2.531798  
     232A      2.548723   233A      2.570232   234A      2.584716  
     235A      2.631253   236A      2.642961   237A      2.667438  
     238A      2.702936   239A      2.718801   240A      2.733029  
     241A      2.826838   242A      2.827827   243A      2.834751  
     244A      2.869727   245A      2.889942   246A      2.901587  
     247A      2.918598   248A      2.945070   249A      2.999157  
     250A      3.027981   251A      3.055324   252A      3.089754  
     253A      3.092358   254A      3.122730   255A      3.139947  
     256A      3.181896   257A      3.188930   258A      3.222008  
     259A      3.254068   260A      3.289126   261A      3.297865  
     262A      3.355700   263A      3.380235   264A      3.395534  
     265A      3.423422   266A      3.448223   267A      3.487090  
     268A      3.497423   269A      3.520727   270A      3.633504  
     271A      3.666879   272A      3.686563   273A      3.735545  
     274A      3.770019   275A      3.851096   276A      3.889327  
     277A      3.964321   278A      4.035455   279A      4.094692  
     280A      4.209428   281A      4.244018   282A      4.448366  
     283A      4.463235   284A      4.658366   285A      4.707979  
     286A      4.749859   287A      4.810719   288A      4.994801  
     289A      5.076746   290A      5.241384   291A      5.531184  
     292A      5.668901   293A      5.826784   294A      6.106642  
     295A      6.318244   296A      6.708318   297A      6.967814  
     298A     18.111108   299A     18.647791   300A     19.373513  
     301A     25.245506   302A     25.704902  

    Final Occupation by Irrep:
              A 
    DOCC [    18 ]

  @DF-RHF Final Energy:  -224.76233952326976

   => Energetics <=

    Nuclear Repulsion Energy =            166.6240564213030666
    One-Electron Energy =                -633.4992733383643326
    Two-Electron Energy =                 242.1128773937915071
    Total Energy =                       -224.7623395232697590

Computation Completed


Properties will be evaluated at   0.000000,   0.000000,   0.000000 [a0]

Properties computed using the SCF density matrix

  Nuclear Dipole Moment: [e a0]
     X:  -673.1617      Y:   108.3761      Z:  1360.8069

  Electronic Dipole Moment: [e a0]
     X:   672.7590      Y:  -109.0078      Z: -1361.3865

  Dipole Moment: [e a0]
     X:    -0.4027      Y:    -0.6317      Z:    -0.5796     Total:     0.9472

  Dipole Moment: [D]
     X:    -1.0235      Y:    -1.6055      Z:    -1.4733     Total:     2.4075


*** tstop() called on ds1 at Mon Oct  4 14:09:00 2021
Module time:
	user time   =      15.98 seconds =       0.27 minutes
	system time =       0.34 seconds =       0.01 minutes
	total time  =          4 seconds =       0.07 minutes
Total time:
	user time   =      54.54 seconds =       0.91 minutes
	system time =       1.26 seconds =       0.02 minutes
	total time  =         12 seconds =       0.20 minutes
  Constructing Basis Sets for SAPT...

   => Loading Basis Set <=

    Name: (AUG-CC-PVDZ AUX)
    Role: RIFIT
    Keyword: DF_BASIS_SAPT
    atoms 1-2, 10-11 entry N          line   158 file /theoryfs2/ds/csargent/miniconda3/envs/cle/share/psi4/basis/aug-cc-pvdz-ri.gbs 
    atoms 3-6, 12-15 entry H          line    30 file /theoryfs2/ds/csargent/miniconda3/envs/cle/share/psi4/basis/aug-cc-pvdz-ri.gbs 
    atoms 7-9, 16-18 entry C          line   112 file /theoryfs2/ds/csargent/miniconda3/envs/cle/share/psi4/basis/aug-cc-pvdz-ri.gbs 


  //>>>>>>>>>>>>>>>>>>>>>>>>>>>>>>>>>>>//
  //               SAPT0               //
  //<<<<<<<<<<<<<<<<<<<<<<<<<<<<<<<<<<<//


*** tstart() called on ds1
*** at Mon Oct  4 14:09:00 2021

        SAPT0  
    Ed Hohenstein
     6 June 2009

      Orbital Information
  --------------------------
    NSO        =       302
    NMO        =       302
    NRI        =       904
    NOCC A     =        18
    NOCC B     =        18
    FOCC A     =         5
    FOCC B     =         5
    NVIR A     =       284
    NVIR B     =       284

    Elst10,r            =     0.000002624960 [Eh]
    Exch10              =     0.000000000000 [Eh]
    Exch10 (S^2)        =     0.000000000000 [Eh]

    Iter     Energy [mEh]          dE [mEh]         Residual      Time [s]
       1      -0.00000582       0.000005825       0.024285704             0
       2      -0.00000532      -0.000000502       0.006231564             0
       3      -0.00000566       0.000000337       0.003016947             0
       4      -0.00000582       0.000000164       0.000516084             0
       5      -0.00000581      -0.000000015       0.000256297             1
       6      -0.00000580      -0.000000004       0.000088031             1
       7      -0.00000581       0.000000001       0.000043578             1
       8      -0.00000581       0.000000001       0.000017149             1
       9      -0.00000581      -0.000000000       0.000005229             1
      10      -0.00000581      -0.000000000       0.000001281             1
      11      -0.00000581       0.000000000       0.000000556             1

    CHF Iterations converged


    Iter     Energy [mEh]          dE [mEh]         Residual      Time [s]
       1      -0.00000702       0.000007020       0.029791630             0
       2      -0.00000635      -0.000000666       0.006907175             1
       3      -0.00000686       0.000000510       0.002976810             1
       4      -0.00000699       0.000000128       0.000755854             1
       5      -0.00000697      -0.000000016       0.000459286             1
       6      -0.00000697      -0.000000010       0.000146906             1
       7      -0.00000697       0.000000001       0.000060458             1
       8      -0.00000697       0.000000001       0.000022652             1
       9      -0.00000697      -0.000000000       0.000007624             1
      10      -0.00000697      -0.000000000       0.000001926             2
      11      -0.00000697       0.000000000       0.000000989             2

    CHF Iterations converged

    Ind20,r (A<-B)      =    -0.000000005806 [Eh]
    Ind20,r (B<-A)      =    -0.000000006967 [Eh]
    Ind20,r             =    -0.000000012773 [Eh]
    Exch-Ind20,r (A<-B) =     0.000000000000 [Eh]
    Exch-Ind20,r (B<-A) =     0.000000000000 [Eh]
    Exch-Ind20,r        =     0.000000000000 [Eh]
    Disp20              =    -0.000000155224 [Eh]
    Disp20 (SS)         =    -0.000000077612 [Eh]
    Disp20 (OS)         =    -0.000000077612 [Eh]
    Exch-Disp20         =     0.000000000000 [Eh]
    Exch-Disp20 (SS)    =     0.000000000000 [Eh]
    Exch-Disp20 (OS)    =     0.000000000000 [Eh]

    SAPT Results 
  --------------------------------------------------------------------------------------------------------
    Electrostatics                  0.00262496 [mEh]       0.00164719 [kcal/mol]       0.00689183 [kJ/mol]
      Elst10,r                      0.00262496 [mEh]       0.00164719 [kcal/mol]       0.00689183 [kJ/mol]

    Exchange                        0.00000000 [mEh]       0.00000000 [kcal/mol]       0.00000000 [kJ/mol]
      Exch10                        0.00000000 [mEh]       0.00000000 [kcal/mol]       0.00000000 [kJ/mol]
      Exch10(S^2)                   0.00000000 [mEh]       0.00000000 [kcal/mol]       0.00000000 [kJ/mol]

    Induction                       0.00002652 [mEh]       0.00001664 [kcal/mol]       0.00006964 [kJ/mol]
      Ind20,r                      -0.00001277 [mEh]      -0.00000802 [kcal/mol]      -0.00003354 [kJ/mol]
      Exch-Ind20,r                  0.00000000 [mEh]       0.00000000 [kcal/mol]       0.00000000 [kJ/mol]
      delta HF,r (2)                0.00003930 [mEh]       0.00002466 [kcal/mol]       0.00010318 [kJ/mol]

    Dispersion                     -0.00015522 [mEh]      -0.00009740 [kcal/mol]      -0.00040754 [kJ/mol]
      Disp20                       -0.00015522 [mEh]      -0.00009740 [kcal/mol]      -0.00040754 [kJ/mol]
      Exch-Disp20                   0.00000000 [mEh]       0.00000000 [kcal/mol]       0.00000000 [kJ/mol]
      Disp20 (SS)                  -0.00007761 [mEh]      -0.00004870 [kcal/mol]      -0.00020377 [kJ/mol]
      Disp20 (OS)                  -0.00007761 [mEh]      -0.00004870 [kcal/mol]      -0.00020377 [kJ/mol]
      Exch-Disp20 (SS)              0.00000000 [mEh]       0.00000000 [kcal/mol]       0.00000000 [kJ/mol]
      Exch-Disp20 (OS)              0.00000000 [mEh]       0.00000000 [kcal/mol]       0.00000000 [kJ/mol]

  Total HF                          0.00265148 [mEh]       0.00166383 [kcal/mol]       0.00696147 [kJ/mol]
  Total SAPT0                       0.00249626 [mEh]       0.00156643 [kcal/mol]       0.00655393 [kJ/mol]

  Special recipe for scaled SAPT0 (see Manual):
    Electrostatics sSAPT0           0.00262496 [mEh]       0.00164719 [kcal/mol]       0.00689183 [kJ/mol]
    Exchange sSAPT0                 0.00000000 [mEh]       0.00000000 [kcal/mol]       0.00000000 [kJ/mol]
    Induction sSAPT0                0.00002652 [mEh]       0.00001664 [kcal/mol]       0.00006964 [kJ/mol]
    Dispersion sSAPT0              -0.00015522 [mEh]      -0.00009740 [kcal/mol]      -0.00040754 [kJ/mol]
  Total sSAPT0                      0.00249626 [mEh]       0.00156643 [kcal/mol]       0.00655393 [kJ/mol]
  --------------------------------------------------------------------------------------------------------

*** tstop() called on ds1 at Mon Oct  4 14:09:09 2021
Module time:
	user time   =      44.06 seconds =       0.73 minutes
	system time =       3.76 seconds =       0.06 minutes
	total time  =          9 seconds =       0.15 minutes
Total time:
	user time   =      99.64 seconds =       1.66 minutes
	system time =       5.05 seconds =       0.08 minutes
	total time  =         21 seconds =       0.35 minutes


Warning! sapt0 does not have an associated derived wavefunction.The returned wavefunction is the dimer SCF wavefunction.


    Psi4 stopped on: Monday, 04 October 2021 02:09PM
    Psi4 wall time for execution: 0:00:21.40

*** Psi4 exiting successfully. Buy a developer a beer!
