
    -----------------------------------------------------------------------
          Psi4: An Open-Source Ab Initio Electronic Structure Package
                               Psi4 1.4rc3 

                         Git: Rev {HEAD} 080dba6 


    D. G. A. Smith, L. A. Burns, A. C. Simmonett, R. M. Parrish,
    M. C. Schieber, R. Galvelis, P. Kraus, H. Kruse, R. Di Remigio,
    A. Alenaizan, A. M. James, S. Lehtola, J. P. Misiewicz, M. Scheurer,
    R. A. Shaw, J. B. Schriber, Y. Xie, Z. L. Glick, D. A. Sirianni,
    J. S. O'Brien, J. M. Waldrop, A. Kumar, E. G. Hohenstein,
    B. P. Pritchard, B. R. Brooks, H. F. Schaefer III, A. Yu. Sokolov,
    K. Patkowski, A. E. DePrince III, U. Bozkaya, R. A. King,
    F. A. Evangelista, J. M. Turney, T. D. Crawford, C. D. Sherrill,
    J. Chem. Phys. 152(18) 184108 (2020). https://doi.org/10.1063/5.0006002

                            Additional Code Authors
    E. T. Seidl, C. L. Janssen, E. F. Valeev, M. L. Leininger,
    J. F. Gonthier, R. M. Richard, H. R. McAlexander, M. Saitow, X. Wang,
    P. Verma, and M. H. Lechner

             Previous Authors, Complete List of Code Contributors,
                       and Citations for Specific Modules
    https://github.com/psi4/psi4/blob/master/codemeta.json
    https://github.com/psi4/psi4/graphs/contributors
    http://psicode.org/psi4manual/master/introduction.html#citing-psifour

    -----------------------------------------------------------------------


    Psi4 started on: Monday, 04 October 2021 01:33PM

    Process ID: 8119
    Host:       ds1
    PSIDATADIR: /theoryfs2/ds/csargent/miniconda3/envs/cle/share/psi4
    Memory:     500.0 MiB
    Threads:    6
    
  ==> Input File <==

--------------------------------------------------------------------------
# PSI4 file produced by CrystaLattE

# Generated from:               pyrazole.xyz
# Psithon input for N-mer:      2mer-0+159
# Number of atoms per monomer:  [9, 9]
# Number of replicas:           2
# COM priority:                 3.978502609838e-05
# Minimum COM separations:      15.501 
# Separation priority:          6.778453366861e-05
# Minimum monomer separations:  12.978 
# Cutoff priority:              2.763805542936e-06
# Nuclear repulsion energy:     377.50423182197494

memory 7 GB

molecule Dimer_0_159 {
  N            6.27981210      -4.25303372       0.19313865 
  N            6.06870777      -2.28125697       1.80544317 
  H            3.66871156      -5.64628941      -1.96684001 
  H            0.69034521      -2.37545694      -0.42864236 
  H            3.35917442       0.17650601       3.09265017 
  H            7.35266782      -1.99461311       2.90680702 
  C            3.77952586      -1.21508453       1.76858172 
  C            2.38242998      -2.55505538       0.04607681 
  C            4.01771468      -4.38410490      -0.88761863 
--
  N          -16.93547335     -19.42731757      -0.14706183 
  N          -17.14657768     -21.39909431      -1.75936635 
  H          -19.54657389     -18.03406187       2.01291682 
  H          -22.52494025     -21.30489434       0.47471918 
  H          -19.85611103     -23.85685730      -3.04657335 
  H          -15.86261763     -21.68573818      -2.86073020 
  C          -19.43575960     -22.46526676      -1.72250490 
  C          -20.83285547     -21.12529590       0.00000000 
  C          -19.19757077     -19.29624639       0.93369544 
units = au
no_com
no_reorient
}

set {
  e_convergence 10
  d_convergence 10
  scf_type df
  mp2_type df
  cc_type df
  freeze_core true
}

energy('sapt0/aug-cc-pvdz')

--------------------------------------------------------------------------

  Memory set to   6.519 GiB by Python driver.

Scratch directory: /scratch/csargent/psi4.7158.66302/

Scratch directory: /scratch/csargent/psi4.7158.66302/

  //>>>>>>>>>>>>>>>>>>>>>>>>>>>>>>>>>>>//
  //              Dimer HF             //
  //<<<<<<<<<<<<<<<<<<<<<<<<<<<<<<<<<<<//


*** tstart() called on ds1
*** at Mon Oct  4 13:33:06 2021

   => Loading Basis Set <=

    Name: AUG-CC-PVDZ
    Role: ORBITAL
    Keyword: BASIS
    atoms 1-2, 10-11 entry N          line   218 file /theoryfs2/ds/csargent/miniconda3/envs/cle/share/psi4/basis/aug-cc-pvdz.gbs 
    atoms 3-6, 12-15 entry H          line    40 file /theoryfs2/ds/csargent/miniconda3/envs/cle/share/psi4/basis/aug-cc-pvdz.gbs 
    atoms 7-9, 16-18 entry C          line   182 file /theoryfs2/ds/csargent/miniconda3/envs/cle/share/psi4/basis/aug-cc-pvdz.gbs 


         ---------------------------------------------------------
                                   SCF
               by Justin Turney, Rob Parrish, Andy Simmonett
                          and Daniel G. A. Smith
                              RHF Reference
                        6 Threads,   6675 MiB Core
         ---------------------------------------------------------

  ==> Geometry <==

    Molecular point group: c1
    Full point group: C1

    Geometry (in Bohr), charge = 0, multiplicity = 1:

       Center              X                  Y                   Z               Mass       
    ------------   -----------------  -----------------  -----------------  -----------------
         N            6.279812100000    -4.253033720000     0.193138650000    14.003074004430
         N            6.068707770000    -2.281256970000     1.805443170000    14.003074004430
         H            3.668711560000    -5.646289410000    -1.966840010000     1.007825032230
         H            0.690345210000    -2.375456940000    -0.428642360000     1.007825032230
         H            3.359174420000     0.176506010000     3.092650170000     1.007825032230
         H            7.352667820000    -1.994613110000     2.906807020000     1.007825032230
         C            3.779525860000    -1.215084530000     1.768581720000    12.000000000000
         C            2.382429980000    -2.555055380000     0.046076810000    12.000000000000
         C            4.017714680000    -4.384104900000    -0.887618630000    12.000000000000
         N          -16.935473350000   -19.427317570000    -0.147061830000    14.003074004430
         N          -17.146577680000   -21.399094310000    -1.759366350000    14.003074004430
         H          -19.546573890000   -18.034061870000     2.012916820000     1.007825032230
         H          -22.524940250000   -21.304894340000     0.474719180000     1.007825032230
         H          -19.856111030000   -23.856857300000    -3.046573350000     1.007825032230
         H          -15.862617630000   -21.685738180000    -2.860730200000     1.007825032230
         C          -19.435759600000   -22.465266760000    -1.722504900000    12.000000000000
         C          -20.832855470000   -21.125295900000     0.000000000000    12.000000000000
         C          -19.197570770000   -19.296246390000     0.933695440000    12.000000000000

  Running in c1 symmetry.

  Rotational constants: A =      0.02483  B =      0.00112  C =      0.00108 [cm^-1]
  Rotational constants: A =    744.45141  B =     33.71856  C =     32.47930 [MHz]
  Nuclear repulsion =  377.504231909498344

  Charge       = 0
  Multiplicity = 1
  Electrons    = 72
  Nalpha       = 36
  Nbeta        = 36

  ==> Algorithm <==

  SCF Algorithm Type is DF.
  DIIS enabled.
  MOM disabled.
  Fractional occupation disabled.
  Guess Type is SAD.
  Energy threshold   = 1.00e-10
  Density threshold  = 1.00e-10
  Integral threshold = 1.00e-12

  ==> Primary Basis <==

  Basis Set: AUG-CC-PVDZ
    Blend: AUG-CC-PVDZ
    Number of shells: 130
    Number of basis functions: 302
    Number of Cartesian functions: 322
    Spherical Harmonics?: true
    Max angular momentum: 2

   => Loading Basis Set <=

    Name: (AUG-CC-PVDZ AUX)
    Role: JKFIT
    Keyword: DF_BASIS_SCF
    atoms 1-2, 10-11 entry N          line   212 file /theoryfs2/ds/csargent/miniconda3/envs/cle/share/psi4/basis/aug-cc-pvdz-jkfit.gbs 
    atoms 3-6, 12-15 entry H          line    70 file /theoryfs2/ds/csargent/miniconda3/envs/cle/share/psi4/basis/aug-cc-pvdz-jkfit.gbs 
    atoms 7-9, 16-18 entry C          line   154 file /theoryfs2/ds/csargent/miniconda3/envs/cle/share/psi4/basis/aug-cc-pvdz-jkfit.gbs 

  ==> Integral Setup <==

  ==> DiskDFJK: Density-Fitted J/K Matrices <==

    J tasked:                  Yes
    K tasked:                  Yes
    wK tasked:                  No
    OpenMP threads:              6
    Integrals threads:           6
    Memory [MiB]:             5006
    Algorithm:                Core
    Integral Cache:           SAVE
    Schwarz Cutoff:          1E-12
    Fitting Condition:       1E-10

   => Auxiliary Basis Set <=

  Basis Set: (AUG-CC-PVDZ AUX)
    Blend: AUG-CC-PVDZ-JKFIT
    Number of shells: 376
    Number of basis functions: 1116
    Number of Cartesian functions: 1290
    Spherical Harmonics?: true
    Max angular momentum: 3

  Minimum eigenvalue in the overlap matrix is 3.0333013538E-05.
  Reciprocal condition number of the overlap matrix is 2.4874222388E-06.
    Using symmetric orthogonalization.

  ==> Pre-Iterations <==

  SCF Guess: Superposition of Atomic Densities via on-the-fly atomic UHF (no occupation information).

   -------------------------
    Irrep   Nso     Nmo    
   -------------------------
     A        302     302 
   -------------------------
    Total     302     302
   -------------------------

  ==> Iterations <==

                           Total Energy        Delta E     RMS |[F,P]|

   @DF-RHF iter SAD:  -449.44389603904858   -4.49444e+02   0.00000e+00 
   @DF-RHF iter   1:  -449.27099883270893    1.72897e-01   2.12795e-03 DIIS
   @DF-RHF iter   2:  -449.47972818195660   -2.08729e-01   9.73381e-04 DIIS
   @DF-RHF iter   3:  -449.52152595475980   -4.17978e-02   2.10021e-04 DIIS
   @DF-RHF iter   4:  -449.52429304840007   -2.76709e-03   8.54538e-05 DIIS
   @DF-RHF iter   5:  -449.52464861959430   -3.55571e-04   1.69508e-05 DIIS
   @DF-RHF iter   6:  -449.52468253149402   -3.39119e-05   7.02228e-06 DIIS
   @DF-RHF iter   7:  -449.52469045046598   -7.91897e-06   3.07996e-06 DIIS
   @DF-RHF iter   8:  -449.52469196433128   -1.51387e-06   1.43725e-06 DIIS
   @DF-RHF iter   9:  -449.52469229778552   -3.33454e-07   3.99311e-07 DIIS
   @DF-RHF iter  10:  -449.52469231528011   -1.74946e-08   1.21109e-07 DIIS
   @DF-RHF iter  11:  -449.52469231665549   -1.37538e-09   2.82189e-08 DIIS
   @DF-RHF iter  12:  -449.52469231674866   -9.31664e-11   8.19907e-09 DIIS
   @DF-RHF iter  13:  -449.52469231675684   -8.18545e-12   3.98920e-09 DIIS
   @DF-RHF iter  14:  -449.52469231675889   -2.04636e-12   1.37243e-09 DIIS
   @DF-RHF iter  15:  -449.52469231675872    1.70530e-13   5.86408e-10 DIIS
   @DF-RHF iter  16:  -449.52469231675866    5.68434e-14   1.83584e-10 DIIS
   @DF-RHF iter  17:  -449.52469231675826    3.97904e-13   6.92108e-11 DIIS
  Energy and wave function converged.


  ==> Post-Iterations <==

    Orbital Energies [Eh]
    ---------------------

    Doubly Occupied:                                                      

       1A    -15.636194     2A    -15.635233     3A    -15.592300  
       4A    -15.591321     5A    -11.279869     6A    -11.278880  
       7A    -11.237780     8A    -11.236772     9A    -11.209877  
      10A    -11.208848    11A     -1.386897    12A     -1.385931  
      13A     -1.121882    14A     -1.120908    15A     -1.066879  
      16A     -1.065878    17A     -0.872751    18A     -0.871757  
      19A     -0.837050    20A     -0.836039    21A     -0.757268  
      22A     -0.756282    23A     -0.645730    24A     -0.644732  
      25A     -0.620823    26A     -0.619802    27A     -0.609114  
      28A     -0.608149    29A     -0.583904    30A     -0.582903  
      31A     -0.461390    32A     -0.460424    33A     -0.370707  
      34A     -0.369713    35A     -0.346028    36A     -0.345034  

    Virtual:                                                              

      37A      0.030868    38A      0.031691    39A      0.042316  
      40A      0.043630    41A      0.049205    42A      0.050101  
      43A      0.063498    44A      0.064574    45A      0.101043  
      46A      0.101988    47A      0.104043    48A      0.104975  
      49A      0.117135    50A      0.118291    51A      0.126293  
      52A      0.127244    53A      0.133101    54A      0.134082  
      55A      0.138391    56A      0.139555    57A      0.141459  
      58A      0.142608    59A      0.156883    60A      0.158043  
      61A      0.164473    62A      0.165834    63A      0.171102  
      64A      0.172059    65A      0.178406    66A      0.179436  
      67A      0.196128    68A      0.196934    69A      0.204831  
      70A      0.205757    71A      0.206201    72A      0.207106  
      73A      0.240225    74A      0.241260    75A      0.243653  
      76A      0.244595    77A      0.244978    78A      0.245936  
      79A      0.271131    80A      0.272112    81A      0.279118  
      82A      0.280044    83A      0.300962    84A      0.301952  
      85A      0.325177    86A      0.326128    87A      0.352387  
      88A      0.353351    89A      0.355353    90A      0.356428  
      91A      0.374930    92A      0.375949    93A      0.396084  
      94A      0.397050    95A      0.402767    96A      0.403745  
      97A      0.414988    98A      0.416169    99A      0.432177  
     100A      0.433133   101A      0.443368   102A      0.444373  
     103A      0.453412   104A      0.454368   105A      0.459808  
     106A      0.460859   107A      0.478708   108A      0.479660  
     109A      0.498548   110A      0.499591   111A      0.508692  
     112A      0.509709   113A      0.521946   114A      0.522935  
     115A      0.541560   116A      0.542599   117A      0.574471  
     118A      0.575427   119A      0.586342   120A      0.587350  
     121A      0.590557   122A      0.591579   123A      0.602440  
     124A      0.603418   125A      0.620962   126A      0.621982  
     127A      0.646120   128A      0.647146   129A      0.655304  
     130A      0.656356   131A      0.676173   132A      0.677205  
     133A      0.698047   134A      0.699068   135A      0.700411  
     136A      0.701414   137A      0.721680   138A      0.722661  
     139A      0.725139   140A      0.726151   141A      0.747720  
     142A      0.748725   143A      0.758599   144A      0.759616  
     145A      0.773330   146A      0.774357   147A      0.781511  
     148A      0.782474   149A      0.828508   150A      0.829496  
     151A      0.838258   152A      0.839245   153A      0.848392  
     154A      0.849417   155A      0.881399   156A      0.882426  
     157A      0.888790   158A      0.889806   159A      0.906961  
     160A      0.907967   161A      0.924844   162A      0.925806  
     163A      0.942599   164A      0.943594   165A      0.978222  
     166A      0.979273   167A      0.984862   168A      0.985858  
     169A      1.011156   170A      1.012118   171A      1.046629  
     172A      1.047565   173A      1.066518   174A      1.067520  
     175A      1.100886   176A      1.101830   177A      1.128068  
     178A      1.129086   179A      1.134218   180A      1.135201  
     181A      1.150248   182A      1.151271   183A      1.175180  
     184A      1.176195   185A      1.220560   186A      1.221541  
     187A      1.269574   188A      1.270571   189A      1.303357  
     190A      1.304338   191A      1.311417   192A      1.312389  
     193A      1.365824   194A      1.366815   195A      1.401051  
     196A      1.402077   197A      1.474720   198A      1.475663  
     199A      1.512054   200A      1.513023   201A      1.526138  
     202A      1.527152   203A      1.561000   204A      1.562001  
     205A      1.590899   206A      1.591917   207A      1.608679  
     208A      1.609698   209A      1.637444   210A      1.638500  
     211A      1.669486   212A      1.670509   213A      1.703652  
     214A      1.704645   215A      1.723966   216A      1.724962  
     217A      1.749224   218A      1.750232   219A      1.764394  
     220A      1.765385   221A      1.805058   222A      1.806057  
     223A      1.875655   224A      1.876651   225A      1.932405  
     226A      1.933400   227A      1.943569   228A      1.944613  
     229A      1.988069   230A      1.989097   231A      2.021458  
     232A      2.022452   233A      2.057629   234A      2.058635  
     235A      2.088866   236A      2.089848   237A      2.144704  
     238A      2.145696   239A      2.190025   240A      2.191024  
     241A      2.200836   242A      2.201856   243A      2.230481  
     244A      2.231461   245A      2.275829   246A      2.276866  
     247A      2.307667   248A      2.308649   249A      2.360724  
     250A      2.361736   251A      2.389148   252A      2.390130  
     253A      2.393866   254A      2.394788   255A      2.435272  
     256A      2.436225   257A      2.465006   258A      2.465940  
     259A      2.531817   260A      2.532808   261A      2.570248  
     262A      2.571240   263A      2.584750   264A      2.585693  
     265A      2.642985   266A      2.643960   267A      2.733058  
     268A      2.734029   269A      2.826851   270A      2.827843  
     271A      2.834766   272A      2.835758   273A      2.901608  
     274A      2.902575   275A      2.918630   276A      2.919581  
     277A      2.999179   278A      3.000174   279A      3.055347  
     280A      3.056319   281A      3.092377   282A      3.093345  
     283A      3.122750   284A      3.123735   285A      3.188937  
     286A      3.189942   287A      3.222025   288A      3.223029  
     289A      3.297878   290A      3.298865   291A      3.380256  
     292A      3.381269   293A      3.520748   294A      3.521723  
     295A      3.686576   296A      3.687588   297A      3.889351  
     298A      3.890309   299A      4.209443   300A      4.210418  
     301A      4.463246   302A      4.464271  

    Final Occupation by Irrep:
              A 
    DOCC [    36 ]

  @DF-RHF Final Energy:  -449.52469231675826

   => Energetics <=

    Nuclear Repulsion Energy =            377.5042319094983441
    One-Electron Energy =               -1355.5477522406281423
    Two-Electron Energy =                 528.5188280143714792
    Total Energy =                       -449.5246923167583191

Computation Completed


Properties will be evaluated at   0.000000,   0.000000,   0.000000 [a0]

Properties computed using the SCF density matrix

  Nuclear Dipole Moment: [e a0]
     X:  -510.5732      Y:  -852.4926      Z:     1.6588

  Electronic Dipole Moment: [e a0]
     X:   509.7655      Y:   852.4904      Z:    -1.6589

  Dipole Moment: [e a0]
     X:    -0.8077      Y:    -0.0023      Z:    -0.0001     Total:     0.8077

  Dipole Moment: [D]
     X:    -2.0529      Y:    -0.0057      Z:    -0.0003     Total:     2.0529


*** tstop() called on ds1 at Mon Oct  4 13:33:11 2021
Module time:
	user time   =      23.72 seconds =       0.40 minutes
	system time =       0.65 seconds =       0.01 minutes
	total time  =          5 seconds =       0.08 minutes
Total time:
	user time   =      23.72 seconds =       0.40 minutes
	system time =       0.65 seconds =       0.01 minutes
	total time  =          5 seconds =       0.08 minutes

  //>>>>>>>>>>>>>>>>>>>>>>>>>>>>>>>>>>>//
  //            Monomer A HF           //
  //<<<<<<<<<<<<<<<<<<<<<<<<<<<<<<<<<<<//


*** tstart() called on ds1
*** at Mon Oct  4 13:33:11 2021

   => Loading Basis Set <=

    Name: AUG-CC-PVDZ
    Role: ORBITAL
    Keyword: BASIS
    atoms 1-2, 10-11 entry N          line   218 file /theoryfs2/ds/csargent/miniconda3/envs/cle/share/psi4/basis/aug-cc-pvdz.gbs 
    atoms 3-6, 12-15 entry H          line    40 file /theoryfs2/ds/csargent/miniconda3/envs/cle/share/psi4/basis/aug-cc-pvdz.gbs 
    atoms 7-9, 16-18 entry C          line   182 file /theoryfs2/ds/csargent/miniconda3/envs/cle/share/psi4/basis/aug-cc-pvdz.gbs 


         ---------------------------------------------------------
                                   SCF
               by Justin Turney, Rob Parrish, Andy Simmonett
                          and Daniel G. A. Smith
                              RHF Reference
                        6 Threads,   6675 MiB Core
         ---------------------------------------------------------

  ==> Geometry <==

    Molecular point group: c1
    Full point group: C1

    Geometry (in Bohr), charge = 0, multiplicity = 1:

       Center              X                  Y                   Z               Mass       
    ------------   -----------------  -----------------  -----------------  -----------------
         N            6.279812100000    -4.253033720000     0.193138650000    14.003074004430
         N            6.068707770000    -2.281256970000     1.805443170000    14.003074004430
         H            3.668711560000    -5.646289410000    -1.966840010000     1.007825032230
         H            0.690345210000    -2.375456940000    -0.428642360000     1.007825032230
         H            3.359174420000     0.176506010000     3.092650170000     1.007825032230
         H            7.352667820000    -1.994613110000     2.906807020000     1.007825032230
         C            3.779525860000    -1.215084530000     1.768581720000    12.000000000000
         C            2.382429980000    -2.555055380000     0.046076810000    12.000000000000
         C            4.017714680000    -4.384104900000    -0.887618630000    12.000000000000
      Gh(N)         -16.935473350000   -19.427317570000    -0.147061830000    14.003074004430
      Gh(N)         -17.146577680000   -21.399094310000    -1.759366350000    14.003074004430
      Gh(H)         -19.546573890000   -18.034061870000     2.012916820000     1.007825032230
      Gh(H)         -22.524940250000   -21.304894340000     0.474719180000     1.007825032230
      Gh(H)         -19.856111030000   -23.856857300000    -3.046573350000     1.007825032230
      Gh(H)         -15.862617630000   -21.685738180000    -2.860730200000     1.007825032230
      Gh(C)         -19.435759600000   -22.465266760000    -1.722504900000    12.000000000000
      Gh(C)         -20.832855470000   -21.125295900000     0.000000000000    12.000000000000
      Gh(C)         -19.197570770000   -19.296246390000     0.933695440000    12.000000000000

  Running in c1 symmetry.

  Rotational constants: A =      0.02483  B =      0.00112  C =      0.00108 [cm^-1]
  Rotational constants: A =    744.45141  B =     33.71856  C =     32.47930 [MHz]
  Nuclear repulsion =  166.624056450327203

  Charge       = 0
  Multiplicity = 1
  Electrons    = 36
  Nalpha       = 18
  Nbeta        = 18

  ==> Algorithm <==

  SCF Algorithm Type is DF.
  DIIS enabled.
  MOM disabled.
  Fractional occupation disabled.
  Guess Type is SAD.
  Energy threshold   = 1.00e-10
  Density threshold  = 1.00e-10
  Integral threshold = 1.00e-12

  ==> Primary Basis <==

  Basis Set: AUG-CC-PVDZ
    Blend: AUG-CC-PVDZ
    Number of shells: 130
    Number of basis functions: 302
    Number of Cartesian functions: 322
    Spherical Harmonics?: true
    Max angular momentum: 2

   => Loading Basis Set <=

    Name: (AUG-CC-PVDZ AUX)
    Role: JKFIT
    Keyword: DF_BASIS_SCF
    atoms 1-2, 10-11 entry N          line   212 file /theoryfs2/ds/csargent/miniconda3/envs/cle/share/psi4/basis/aug-cc-pvdz-jkfit.gbs 
    atoms 3-6, 12-15 entry H          line    70 file /theoryfs2/ds/csargent/miniconda3/envs/cle/share/psi4/basis/aug-cc-pvdz-jkfit.gbs 
    atoms 7-9, 16-18 entry C          line   154 file /theoryfs2/ds/csargent/miniconda3/envs/cle/share/psi4/basis/aug-cc-pvdz-jkfit.gbs 

  ==> Integral Setup <==

  ==> DiskDFJK: Density-Fitted J/K Matrices <==

    J tasked:                  Yes
    K tasked:                  Yes
    wK tasked:                  No
    OpenMP threads:              6
    Integrals threads:           6
    Memory [MiB]:             5006
    Algorithm:                Core
    Integral Cache:           LOAD
    Schwarz Cutoff:          1E-12
    Fitting Condition:       1E-10

   => Auxiliary Basis Set <=

  Basis Set: (AUG-CC-PVDZ AUX)
    Blend: AUG-CC-PVDZ-JKFIT
    Number of shells: 376
    Number of basis functions: 1116
    Number of Cartesian functions: 1290
    Spherical Harmonics?: true
    Max angular momentum: 3

  Minimum eigenvalue in the overlap matrix is 3.0333013538E-05.
  Reciprocal condition number of the overlap matrix is 2.4874222388E-06.
    Using symmetric orthogonalization.

  ==> Pre-Iterations <==

  SCF Guess: Superposition of Atomic Densities via on-the-fly atomic UHF (no occupation information).

   -------------------------
    Irrep   Nso     Nmo    
   -------------------------
     A        302     302 
   -------------------------
    Total     302     302
   -------------------------

  ==> Iterations <==

                           Total Energy        Delta E     RMS |[F,P]|

   @DF-RHF iter SAD:  -224.72194801371299   -2.24722e+02   0.00000e+00 
   @DF-RHF iter   1:  -224.63549169839840    8.64563e-02   1.50472e-03 DIIS
   @DF-RHF iter   2:  -224.73984613147053   -1.04354e-01   6.88462e-04 DIIS
   @DF-RHF iter   3:  -224.76075487053441   -2.09087e-02   1.48626e-04 DIIS
   @DF-RHF iter   4:  -224.76213931425465   -1.38444e-03   6.05310e-05 DIIS
   @DF-RHF iter   5:  -224.76231766899622   -1.78355e-04   1.19893e-05 DIIS
   @DF-RHF iter   6:  -224.76233462646448   -1.69575e-05   4.96772e-06 DIIS
   @DF-RHF iter   7:  -224.76233858249975   -3.95604e-06   2.18806e-06 DIIS
   @DF-RHF iter   8:  -224.76233934324188   -7.60742e-07   1.01700e-06 DIIS
   @DF-RHF iter   9:  -224.76233951088375   -1.67642e-07   2.83302e-07 DIIS
   @DF-RHF iter  10:  -224.76233951970460   -8.82085e-09   8.55547e-08 DIIS
   @DF-RHF iter  11:  -224.76233952039374   -6.89141e-10   1.99714e-08 DIIS
   @DF-RHF iter  12:  -224.76233952044024   -4.64979e-11   5.81092e-09 DIIS
   @DF-RHF iter  13:  -224.76233952044390   -3.66640e-12   2.83097e-09 DIIS
   @DF-RHF iter  14:  -224.76233952044495   -1.05160e-12   9.75191e-10 DIIS
   @DF-RHF iter  15:  -224.76233952044529   -3.41061e-13   4.15548e-10 DIIS
   @DF-RHF iter  16:  -224.76233952044578   -4.83169e-13   1.25998e-10 DIIS
   @DF-RHF iter  17:  -224.76233952044532    4.54747e-13   4.47779e-11 DIIS
  Energy and wave function converged.


  ==> Post-Iterations <==

    Orbital Energies [Eh]
    ---------------------

    Doubly Occupied:                                                      

       1A    -15.636223     2A    -15.592313     3A    -11.279894  
       4A    -11.237784     5A    -11.209891     6A     -1.386922  
       7A     -1.121901     8A     -1.066898     9A     -0.872768  
      10A     -0.837061    11A     -0.757292    12A     -0.645746  
      13A     -0.620834    14A     -0.609140    15A     -0.583920  
      16A     -0.461404    17A     -0.370721    18A     -0.346048  

    Virtual:                                                              

      19A      0.022724    20A      0.030764    21A      0.040022  
      22A      0.042324    23A      0.044262    24A      0.049158  
      25A      0.063512    26A      0.065960    27A      0.084018  
      28A      0.090792    29A      0.098995    30A      0.100999  
      31A      0.104029    32A      0.117178    33A      0.118360  
      34A      0.125859    35A      0.126271    36A      0.128288  
      37A      0.133061    38A      0.133411    39A      0.134182  
      40A      0.138403    41A      0.141492    42A      0.156863  
      43A      0.158571    44A      0.164602    45A      0.166018  
      46A      0.171075    47A      0.178380    48A      0.179318  
      49A      0.195567    50A      0.196042    51A      0.201584  
      52A      0.204793    53A      0.206162    54A      0.223008  
      55A      0.225170    56A      0.228289    57A      0.235659  
      58A      0.240237    59A      0.243626    60A      0.244966  
      61A      0.264110    62A      0.271102    63A      0.271143  
      64A      0.279085    65A      0.301011    66A      0.321965  
      67A      0.325151    68A      0.340159    69A      0.352358  
      70A      0.355359    71A      0.366601    72A      0.372931  
      73A      0.374907    74A      0.383778    75A      0.396061  
      76A      0.402741    77A      0.415004    78A      0.427577  
      79A      0.432106    80A      0.432133    81A      0.441227  
      82A      0.442391    83A      0.443387    84A      0.453393  
      85A      0.456084    86A      0.457485    87A      0.459816  
      88A      0.461965    89A      0.478655    90A      0.498543  
      91A      0.508690    92A      0.509805    93A      0.519524  
      94A      0.521917    95A      0.533233    96A      0.538087  
      97A      0.541564    98A      0.559397    99A      0.568954  
     100A      0.571890   101A      0.574433   102A      0.586318  
     103A      0.590538   104A      0.595225   105A      0.602413  
     106A      0.613433   107A      0.620949   108A      0.621332  
     109A      0.633599   110A      0.646111   111A      0.655296  
     112A      0.676162   113A      0.690895   114A      0.698041  
     115A      0.700391   116A      0.707884   117A      0.719527  
     118A      0.721667   119A      0.725116   120A      0.735747  
     121A      0.745420   122A      0.747709   123A      0.758592  
     124A      0.773318   125A      0.781481   126A      0.789757  
     127A      0.798211   128A      0.814516   129A      0.820998  
     130A      0.828504   131A      0.838230   132A      0.848395  
     133A      0.852014   134A      0.855195   135A      0.871088  
     136A      0.881140   137A      0.881398   138A      0.888768  
     139A      0.895756   140A      0.906950   141A      0.916258  
     142A      0.924815   143A      0.942583   144A      0.952186  
     145A      0.978222   146A      0.984850   147A      0.997281  
     148A      1.011149   149A      1.024275   150A      1.030368  
     151A      1.046606   152A      1.051788   153A      1.066504  
     154A      1.071244   155A      1.081090   156A      1.100852  
     157A      1.108326   158A      1.128058   159A      1.134196  
     160A      1.150235   161A      1.158958   162A      1.166440  
     163A      1.175168   164A      1.185131   165A      1.220548  
     166A      1.221900   167A      1.237212   168A      1.268163  
     169A      1.269558   170A      1.293913   171A      1.303342  
     172A      1.311398   173A      1.315322   174A      1.340849  
     175A      1.365807   176A      1.382004   177A      1.401044  
     178A      1.435191   179A      1.444916   180A      1.474691  
     181A      1.493431   182A      1.507215   183A      1.512027  
     184A      1.526129   185A      1.560989   186A      1.590883  
     187A      1.608669   188A      1.637438   189A      1.669472  
     190A      1.676916   191A      1.689095   192A      1.703634  
     193A      1.723950   194A      1.749215   195A      1.764373  
     196A      1.805048   197A      1.875633   198A      1.932390  
     199A      1.943558   200A      1.988067   201A      2.021446  
     202A      2.041243   203A      2.057611   204A      2.088839  
     205A      2.109267   206A      2.135003   207A      2.144688  
     208A      2.168288   209A      2.190005   210A      2.200827  
     211A      2.216827   212A      2.230457   213A      2.234033  
     214A      2.262040   215A      2.275825   216A      2.277912  
     217A      2.289445   218A      2.307640   219A      2.335894  
     220A      2.360716   221A      2.380732   222A      2.389130  
     223A      2.393822   224A      2.394736   225A      2.435246  
     226A      2.444075   227A      2.464967   228A      2.478498  
     229A      2.500067   230A      2.513854   231A      2.531799  
     232A      2.549011   233A      2.570232   234A      2.584716  
     235A      2.631526   236A      2.642961   237A      2.667729  
     238A      2.703233   239A      2.719082   240A      2.733029  
     241A      2.826837   242A      2.828092   243A      2.834751  
     244A      2.870037   245A      2.890223   246A      2.901587  
     247A      2.918598   248A      2.945340   249A      2.999158  
     250A      3.028260   251A      3.055324   252A      3.090037  
     253A      3.092358   254A      3.122730   255A      3.140223  
     256A      3.182173   257A      3.188931   258A      3.222008  
     259A      3.254349   260A      3.289393   261A      3.297865  
     262A      3.355985   263A      3.380237   264A      3.395810  
     265A      3.423725   266A      3.448488   267A      3.487369  
     268A      3.497701   269A      3.520728   270A      3.633765  
     271A      3.667161   272A      3.686563   273A      3.735819  
     274A      3.770305   275A      3.851403   276A      3.889327  
     277A      3.964602   278A      4.035737   279A      4.094977  
     280A      4.209428   281A      4.244305   282A      4.448638  
     283A      4.463236   284A      4.658634   285A      4.708270  
     286A      4.750139   287A      4.811004   288A      4.995080  
     289A      5.077028   290A      5.241667   291A      5.531459  
     292A      5.669191   293A      5.827076   294A      6.106919  
     295A      6.318511   296A      6.708581   297A      6.968098  
     298A     18.111375   299A     18.648059   300A     19.373795  
     301A     25.245780   302A     25.705198  

    Final Occupation by Irrep:
              A 
    DOCC [    18 ]

  @DF-RHF Final Energy:  -224.76233952044532

   => Energetics <=

    Nuclear Repulsion Energy =            166.6240564503272026
    One-Electron Energy =                -633.4992733929932456
    Two-Electron Energy =                 242.1128774222207198
    Total Energy =                       -224.7623395204453232

Computation Completed


Properties will be evaluated at   0.000000,   0.000000,   0.000000 [a0]

Properties computed using the SCF density matrix

  Nuclear Dipole Moment: [e a0]
     X:   162.5886      Y:  -104.5054      Z:    23.1563

  Electronic Dipole Moment: [e a0]
     X:  -162.9913      Y:   105.1370      Z:   -22.5767

  Dipole Moment: [e a0]
     X:    -0.4027      Y:     0.6317      Z:     0.5796     Total:     0.9472

  Dipole Moment: [D]
     X:    -1.0235      Y:     1.6055      Z:     1.4733     Total:     2.4075


*** tstop() called on ds1 at Mon Oct  4 13:33:15 2021
Module time:
	user time   =      17.02 seconds =       0.28 minutes
	system time =       0.36 seconds =       0.01 minutes
	total time  =          4 seconds =       0.07 minutes
Total time:
	user time   =      40.86 seconds =       0.68 minutes
	system time =       1.01 seconds =       0.02 minutes
	total time  =          9 seconds =       0.15 minutes

  //>>>>>>>>>>>>>>>>>>>>>>>>>>>>>>>>>>>//
  //            Monomer B HF           //
  //<<<<<<<<<<<<<<<<<<<<<<<<<<<<<<<<<<<//


*** tstart() called on ds1
*** at Mon Oct  4 13:33:15 2021

   => Loading Basis Set <=

    Name: AUG-CC-PVDZ
    Role: ORBITAL
    Keyword: BASIS
    atoms 1-2, 10-11 entry N          line   218 file /theoryfs2/ds/csargent/miniconda3/envs/cle/share/psi4/basis/aug-cc-pvdz.gbs 
    atoms 3-6, 12-15 entry H          line    40 file /theoryfs2/ds/csargent/miniconda3/envs/cle/share/psi4/basis/aug-cc-pvdz.gbs 
    atoms 7-9, 16-18 entry C          line   182 file /theoryfs2/ds/csargent/miniconda3/envs/cle/share/psi4/basis/aug-cc-pvdz.gbs 


         ---------------------------------------------------------
                                   SCF
               by Justin Turney, Rob Parrish, Andy Simmonett
                          and Daniel G. A. Smith
                              RHF Reference
                        6 Threads,   6675 MiB Core
         ---------------------------------------------------------

  ==> Geometry <==

    Molecular point group: c1
    Full point group: C1

    Geometry (in Bohr), charge = 0, multiplicity = 1:

       Center              X                  Y                   Z               Mass       
    ------------   -----------------  -----------------  -----------------  -----------------
      Gh(N)           6.279812100000    -4.253033720000     0.193138650000    14.003074004430
      Gh(N)           6.068707770000    -2.281256970000     1.805443170000    14.003074004430
      Gh(H)           3.668711560000    -5.646289410000    -1.966840010000     1.007825032230
      Gh(H)           0.690345210000    -2.375456940000    -0.428642360000     1.007825032230
      Gh(H)           3.359174420000     0.176506010000     3.092650170000     1.007825032230
      Gh(H)           7.352667820000    -1.994613110000     2.906807020000     1.007825032230
      Gh(C)           3.779525860000    -1.215084530000     1.768581720000    12.000000000000
      Gh(C)           2.382429980000    -2.555055380000     0.046076810000    12.000000000000
      Gh(C)           4.017714680000    -4.384104900000    -0.887618630000    12.000000000000
         N          -16.935473350000   -19.427317570000    -0.147061830000    14.003074004430
         N          -17.146577680000   -21.399094310000    -1.759366350000    14.003074004430
         H          -19.546573890000   -18.034061870000     2.012916820000     1.007825032230
         H          -22.524940250000   -21.304894340000     0.474719180000     1.007825032230
         H          -19.856111030000   -23.856857300000    -3.046573350000     1.007825032230
         H          -15.862617630000   -21.685738180000    -2.860730200000     1.007825032230
         C          -19.435759600000   -22.465266760000    -1.722504900000    12.000000000000
         C          -20.832855470000   -21.125295900000     0.000000000000    12.000000000000
         C          -19.197570770000   -19.296246390000     0.933695440000    12.000000000000

  Running in c1 symmetry.

  Rotational constants: A =      0.02483  B =      0.00112  C =      0.00108 [cm^-1]
  Rotational constants: A =    744.45141  B =     33.71856  C =     32.47930 [MHz]
  Nuclear repulsion =  166.624056527193432

  Charge       = 0
  Multiplicity = 1
  Electrons    = 36
  Nalpha       = 18
  Nbeta        = 18

  ==> Algorithm <==

  SCF Algorithm Type is DF.
  DIIS enabled.
  MOM disabled.
  Fractional occupation disabled.
  Guess Type is SAD.
  Energy threshold   = 1.00e-10
  Density threshold  = 1.00e-10
  Integral threshold = 1.00e-12

  ==> Primary Basis <==

  Basis Set: AUG-CC-PVDZ
    Blend: AUG-CC-PVDZ
    Number of shells: 130
    Number of basis functions: 302
    Number of Cartesian functions: 322
    Spherical Harmonics?: true
    Max angular momentum: 2

   => Loading Basis Set <=

    Name: (AUG-CC-PVDZ AUX)
    Role: JKFIT
    Keyword: DF_BASIS_SCF
    atoms 1-2, 10-11 entry N          line   212 file /theoryfs2/ds/csargent/miniconda3/envs/cle/share/psi4/basis/aug-cc-pvdz-jkfit.gbs 
    atoms 3-6, 12-15 entry H          line    70 file /theoryfs2/ds/csargent/miniconda3/envs/cle/share/psi4/basis/aug-cc-pvdz-jkfit.gbs 
    atoms 7-9, 16-18 entry C          line   154 file /theoryfs2/ds/csargent/miniconda3/envs/cle/share/psi4/basis/aug-cc-pvdz-jkfit.gbs 

  ==> Integral Setup <==

  ==> DiskDFJK: Density-Fitted J/K Matrices <==

    J tasked:                  Yes
    K tasked:                  Yes
    wK tasked:                  No
    OpenMP threads:              6
    Integrals threads:           6
    Memory [MiB]:             5006
    Algorithm:                Core
    Integral Cache:           LOAD
    Schwarz Cutoff:          1E-12
    Fitting Condition:       1E-10

   => Auxiliary Basis Set <=

  Basis Set: (AUG-CC-PVDZ AUX)
    Blend: AUG-CC-PVDZ-JKFIT
    Number of shells: 376
    Number of basis functions: 1116
    Number of Cartesian functions: 1290
    Spherical Harmonics?: true
    Max angular momentum: 3

  Minimum eigenvalue in the overlap matrix is 3.0333013538E-05.
  Reciprocal condition number of the overlap matrix is 2.4874222388E-06.
    Using symmetric orthogonalization.

  ==> Pre-Iterations <==

  SCF Guess: Superposition of Atomic Densities via on-the-fly atomic UHF (no occupation information).

   -------------------------
    Irrep   Nso     Nmo    
   -------------------------
     A        302     302 
   -------------------------
    Total     302     302
   -------------------------

  ==> Iterations <==

                           Total Energy        Delta E     RMS |[F,P]|

   @DF-RHF iter SAD:  -224.72194802527366   -2.24722e+02   0.00000e+00 
   @DF-RHF iter   1:  -224.63549170646016    8.64563e-02   1.50472e-03 DIIS
   @DF-RHF iter   2:  -224.73984613997726   -1.04354e-01   6.88462e-04 DIIS
   @DF-RHF iter   3:  -224.76075487918482   -2.09087e-02   1.48626e-04 DIIS
   @DF-RHF iter   4:  -224.76213932297557   -1.38444e-03   6.05310e-05 DIIS
   @DF-RHF iter   5:  -224.76231767773544   -1.78355e-04   1.19893e-05 DIIS
   @DF-RHF iter   6:  -224.76233463520907   -1.69575e-05   4.96772e-06 DIIS
   @DF-RHF iter   7:  -224.76233859124687   -3.95604e-06   2.18806e-06 DIIS
   @DF-RHF iter   8:  -224.76233935198914   -7.60742e-07   1.01700e-06 DIIS
   @DF-RHF iter   9:  -224.76233951963164   -1.67642e-07   2.83302e-07 DIIS
   @DF-RHF iter  10:  -224.76233952845197   -8.82034e-09   8.55547e-08 DIIS
   @DF-RHF iter  11:  -224.76233952914163   -6.89653e-10   1.99714e-08 DIIS
   @DF-RHF iter  12:  -224.76233952918727   -4.56453e-11   5.81092e-09 DIIS
   @DF-RHF iter  13:  -224.76233952919216   -4.88853e-12   2.83097e-09 DIIS
   @DF-RHF iter  14:  -224.76233952919279   -6.25278e-13   9.75191e-10 DIIS
   @DF-RHF iter  15:  -224.76233952919313   -3.41061e-13   4.15548e-10 DIIS
   @DF-RHF iter  16:  -224.76233952919299    1.42109e-13   1.25998e-10 DIIS
   @DF-RHF iter  17:  -224.76233952919313   -1.42109e-13   4.47775e-11 DIIS
  Energy and wave function converged.


  ==> Post-Iterations <==

    Orbital Energies [Eh]
    ---------------------

    Doubly Occupied:                                                      

       1A    -15.636223     2A    -15.592313     3A    -11.279894  
       4A    -11.237784     5A    -11.209891     6A     -1.386922  
       7A     -1.121901     8A     -1.066898     9A     -0.872768  
      10A     -0.837061    11A     -0.757292    12A     -0.645746  
      13A     -0.620834    14A     -0.609140    15A     -0.583920  
      16A     -0.461404    17A     -0.370721    18A     -0.346048  

    Virtual:                                                              

      19A      0.023752    20A      0.030763    21A      0.041040  
      22A      0.042367    23A      0.045251    24A      0.049169  
      25A      0.063514    26A      0.066919    27A      0.085051  
      28A      0.091780    29A      0.099958    30A      0.100998  
      31A      0.104027    32A      0.117178    33A      0.119397  
      34A      0.126233    35A      0.127035    36A      0.129392  
      37A      0.133068    38A      0.134414    39A      0.135310  
      40A      0.138404    41A      0.141491    42A      0.156889  
      43A      0.159702    44A      0.164588    45A      0.167015  
      46A      0.171075    47A      0.178367    48A      0.180284  
      49A      0.196040    50A      0.196498    51A      0.202424  
      52A      0.204794    53A      0.206162    54A      0.223905  
      55A      0.226145    56A      0.229313    57A      0.236600  
      58A      0.240237    59A      0.243626    60A      0.244966  
      61A      0.265080    62A      0.271125    63A      0.271972  
      64A      0.279087    65A      0.301010    66A      0.322947  
      67A      0.325154    68A      0.341158    69A      0.352359  
      70A      0.355359    71A      0.367549    72A      0.374000  
      73A      0.374907    74A      0.384852    75A      0.396061  
      76A      0.402741    77A      0.414999    78A      0.428560  
      79A      0.432137    80A      0.433143    81A      0.442349  
      82A      0.443386    83A      0.443514    84A      0.453390  
      85A      0.457047    86A      0.458501    87A      0.459819  
      88A      0.462917    89A      0.478656    90A      0.498543  
      91A      0.508690    92A      0.510757    93A      0.520445  
      94A      0.521917    95A      0.534152    96A      0.539142  
      97A      0.541563    98A      0.560425    99A      0.569787  
     100A      0.572954   101A      0.574433   102A      0.586324  
     103A      0.590538   104A      0.596276   105A      0.602415  
     106A      0.614484   107A      0.620953   108A      0.622304  
     109A      0.634602   110A      0.646111   111A      0.655296  
     112A      0.676162   113A      0.691907   114A      0.698041  
     115A      0.700391   116A      0.708841   117A      0.720563  
     118A      0.721667   119A      0.725115   120A      0.736789  
     121A      0.746500   122A      0.747710   123A      0.758592  
     124A      0.773318   125A      0.781482   126A      0.790769  
     127A      0.799159   128A      0.815544   129A      0.822030  
     130A      0.828505   131A      0.838230   132A      0.848394  
     133A      0.853094   134A      0.856175   135A      0.872142  
     136A      0.881395   137A      0.882211   138A      0.888767  
     139A      0.896812   140A      0.906950   141A      0.917206  
     142A      0.924816   143A      0.942583   144A      0.953169  
     145A      0.978222   146A      0.984850   147A      0.998263  
     148A      1.011149   149A      1.025312   150A      1.031301  
     151A      1.046606   152A      1.052712   153A      1.066504  
     154A      1.072315   155A      1.082164   156A      1.100852  
     157A      1.109289   158A      1.128061   159A      1.134196  
     160A      1.150236   161A      1.159887   162A      1.167403  
     163A      1.175168   164A      1.186126   165A      1.220548  
     166A      1.222782   167A      1.238147   168A      1.269109  
     169A      1.269559   170A      1.294810   171A      1.303342  
     172A      1.311399   173A      1.316275   174A      1.341825  
     175A      1.365809   176A      1.382978   177A      1.401044  
     178A      1.436085   179A      1.445834   180A      1.474691  
     181A      1.494336   182A      1.508132   183A      1.512027  
     184A      1.526130   185A      1.560990   186A      1.590883  
     187A      1.608669   188A      1.637437   189A      1.669473  
     190A      1.677816   191A      1.689986   192A      1.703634  
     193A      1.723950   194A      1.749215   195A      1.764374  
     196A      1.805048   197A      1.875633   198A      1.932390  
     199A      1.943558   200A      1.988067   201A      2.021445  
     202A      2.042325   203A      2.057612   204A      2.088839  
     205A      2.110299   206A      2.136081   207A      2.144687  
     208A      2.169438   209A      2.190005   210A      2.200827  
     211A      2.217861   212A      2.230457   213A      2.235114  
     214A      2.263101   215A      2.275825   216A      2.279002  
     217A      2.290504   218A      2.307640   219A      2.336911  
     220A      2.360716   221A      2.381813   222A      2.389130  
     223A      2.393822   224A      2.395759   225A      2.435246  
     226A      2.445109   227A      2.464967   228A      2.479571  
     229A      2.501183   230A      2.514704   231A      2.531798  
     232A      2.550079   233A      2.570232   234A      2.584716  
     235A      2.632546   236A      2.642961   237A      2.668702  
     238A      2.704183   239A      2.720099   240A      2.733029  
     241A      2.826838   242A      2.829129   243A      2.834751  
     244A      2.870935   245A      2.891245   246A      2.901588  
     247A      2.918598   248A      2.946349   249A      2.999158  
     250A      3.029277   251A      3.055324   252A      3.091001  
     253A      3.092359   254A      3.122730   255A      3.141274  
     256A      3.183163   257A      3.188931   258A      3.222008  
     259A      3.255300   260A      3.290345   261A      3.297865  
     262A      3.356897   263A      3.380236   264A      3.396745  
     265A      3.424611   266A      3.449498   267A      3.488347  
     268A      3.498761   269A      3.520728   270A      3.634700  
     271A      3.668111   272A      3.686563   273A      3.736815  
     274A      3.771207   275A      3.852264   276A      3.889327  
     277A      3.965616   278A      4.036616   279A      4.095902  
     280A      4.209429   281A      4.245254   282A      4.449597  
     283A      4.463235   284A      4.659543   285A      4.709176  
     286A      4.751151   287A      4.811943   288A      4.996049  
     289A      5.077947   290A      5.242629   291A      5.532407  
     292A      5.670071   293A      5.828009   294A      6.107853  
     295A      6.319621   296A      6.709612   297A      6.969011  
     298A     18.112457   299A     18.649088   300A     19.374853  
     301A     25.246661   302A     25.706053  

    Final Occupation by Irrep:
              A 
    DOCC [    18 ]

  @DF-RHF Final Energy:  -224.76233952919313

   => Energetics <=

    Nuclear Repulsion Energy =            166.6240565271934315
    One-Electron Energy =                -633.4992735769496903
    Two-Electron Energy =                 242.1128775205631314
    Total Energy =                       -224.7623395291931274

Computation Completed


Properties will be evaluated at   0.000000,   0.000000,   0.000000 [a0]

Properties computed using the SCF density matrix

  Nuclear Dipole Moment: [e a0]
     X:  -673.1617      Y:  -747.9873      Z:   -21.4975

  Electronic Dipole Moment: [e a0]
     X:   672.7590      Y:   747.3556      Z:    20.9179

  Dipole Moment: [e a0]
     X:    -0.4027      Y:    -0.6317      Z:    -0.5796     Total:     0.9472

  Dipole Moment: [D]
     X:    -1.0235      Y:    -1.6055      Z:    -1.4733     Total:     2.4075


*** tstop() called on ds1 at Mon Oct  4 13:33:19 2021
Module time:
	user time   =      16.60 seconds =       0.28 minutes
	system time =       0.33 seconds =       0.01 minutes
	total time  =          4 seconds =       0.07 minutes
Total time:
	user time   =      57.94 seconds =       0.97 minutes
	system time =       1.35 seconds =       0.02 minutes
	total time  =         13 seconds =       0.22 minutes
  Constructing Basis Sets for SAPT...

   => Loading Basis Set <=

    Name: (AUG-CC-PVDZ AUX)
    Role: RIFIT
    Keyword: DF_BASIS_SAPT
    atoms 1-2, 10-11 entry N          line   158 file /theoryfs2/ds/csargent/miniconda3/envs/cle/share/psi4/basis/aug-cc-pvdz-ri.gbs 
    atoms 3-6, 12-15 entry H          line    30 file /theoryfs2/ds/csargent/miniconda3/envs/cle/share/psi4/basis/aug-cc-pvdz-ri.gbs 
    atoms 7-9, 16-18 entry C          line   112 file /theoryfs2/ds/csargent/miniconda3/envs/cle/share/psi4/basis/aug-cc-pvdz-ri.gbs 


  //>>>>>>>>>>>>>>>>>>>>>>>>>>>>>>>>>>>//
  //               SAPT0               //
  //<<<<<<<<<<<<<<<<<<<<<<<<<<<<<<<<<<<//


*** tstart() called on ds1
*** at Mon Oct  4 13:33:19 2021

        SAPT0  
    Ed Hohenstein
     6 June 2009

      Orbital Information
  --------------------------
    NSO        =       302
    NMO        =       302
    NRI        =       904
    NOCC A     =        18
    NOCC B     =        18
    FOCC A     =         5
    FOCC B     =         5
    NVIR A     =       284
    NVIR B     =       284

    Elst10,r            =    -0.000013205418 [Eh]
    Exch10              =     0.000000000003 [Eh]
    Exch10 (S^2)        =     0.000000000003 [Eh]

    Iter     Energy [mEh]          dE [mEh]         Residual      Time [s]
       1      -0.00013815       0.000138151       0.123718477             1
       2      -0.00012646      -0.000011690       0.031337084             1
       3      -0.00013600       0.000009543       0.014167002             1
       4      -0.00013930       0.000003294       0.002818351             1
       5      -0.00013904      -0.000000255       0.001254828             1
       6      -0.00013891      -0.000000132       0.000386190             1
       7      -0.00013891       0.000000003       0.000141671             2
       8      -0.00013893       0.000000012       0.000059913             2
       9      -0.00013893       0.000000002       0.000018791             2
      10      -0.00013893      -0.000000002       0.000006061             2
      11      -0.00013893       0.000000000       0.000002301             2
      12      -0.00013893       0.000000000       0.000000500             2

    CHF Iterations converged


    Iter     Energy [mEh]          dE [mEh]         Residual      Time [s]
       1      -0.00001897       0.000018970       0.048245979             0
       2      -0.00001718      -0.000001795       0.010876458             0
       3      -0.00001862       0.000001440       0.004152347             1
       4      -0.00001886       0.000000244       0.001065579             1
       5      -0.00001883      -0.000000028       0.000569235             1
       6      -0.00001881      -0.000000021       0.000200248             1
       7      -0.00001881       0.000000000       0.000080784             1
       8      -0.00001881       0.000000003       0.000035860             1
       9      -0.00001881       0.000000000       0.000009433             1
      10      -0.00001881      -0.000000000       0.000002370             1
      11      -0.00001881       0.000000000       0.000000998             2

    CHF Iterations converged

    Ind20,r (A<-B)      =    -0.000000138925 [Eh]
    Ind20,r (B<-A)      =    -0.000000018814 [Eh]
    Ind20,r             =    -0.000000157739 [Eh]
    Exch-Ind20,r (A<-B) =     0.000000000001 [Eh]
    Exch-Ind20,r (B<-A) =     0.000000000003 [Eh]
    Exch-Ind20,r        =     0.000000000004 [Eh]
    Disp20              =    -0.000002014349 [Eh]
    Disp20 (SS)         =    -0.000001007175 [Eh]
    Disp20 (OS)         =    -0.000001007175 [Eh]
    Exch-Disp20         =     0.000000000000 [Eh]
    Exch-Disp20 (SS)    =     0.000000000000 [Eh]
    Exch-Disp20 (OS)    =     0.000000000000 [Eh]

    SAPT Results 
  --------------------------------------------------------------------------------------------------------
    Electrostatics                 -0.01320542 [mEh]      -0.00828652 [kcal/mol]      -0.03467082 [kJ/mol]
      Elst10,r                     -0.01320542 [mEh]      -0.00828652 [kcal/mol]      -0.03467082 [kJ/mol]

    Exchange                        0.00000000 [mEh]       0.00000000 [kcal/mol]       0.00000001 [kJ/mol]
      Exch10                        0.00000000 [mEh]       0.00000000 [kcal/mol]       0.00000001 [kJ/mol]
      Exch10(S^2)                   0.00000000 [mEh]       0.00000000 [kcal/mol]       0.00000001 [kJ/mol]

    Induction                      -0.00006170 [mEh]      -0.00003872 [kcal/mol]      -0.00016200 [kJ/mol]
      Ind20,r                      -0.00015774 [mEh]      -0.00009898 [kcal/mol]      -0.00041414 [kJ/mol]
      Exch-Ind20,r                  0.00000000 [mEh]       0.00000000 [kcal/mol]       0.00000001 [kJ/mol]
      delta HF,r (2)                0.00009603 [mEh]       0.00006026 [kcal/mol]       0.00025213 [kJ/mol]

    Dispersion                     -0.00201435 [mEh]      -0.00126402 [kcal/mol]      -0.00528867 [kJ/mol]
      Disp20                       -0.00201435 [mEh]      -0.00126402 [kcal/mol]      -0.00528867 [kJ/mol]
      Exch-Disp20                   0.00000000 [mEh]       0.00000000 [kcal/mol]       0.00000000 [kJ/mol]
      Disp20 (SS)                  -0.00100717 [mEh]      -0.00063201 [kcal/mol]      -0.00264434 [kJ/mol]
      Disp20 (OS)                  -0.00100717 [mEh]      -0.00063201 [kcal/mol]      -0.00264434 [kJ/mol]
      Exch-Disp20 (SS)              0.00000000 [mEh]       0.00000000 [kcal/mol]       0.00000000 [kJ/mol]
      Exch-Disp20 (OS)              0.00000000 [mEh]       0.00000000 [kcal/mol]       0.00000000 [kJ/mol]

  Total HF                         -0.01326712 [mEh]      -0.00832524 [kcal/mol]      -0.03483282 [kJ/mol]
  Total SAPT0                      -0.01528147 [mEh]      -0.00958927 [kcal/mol]      -0.04012149 [kJ/mol]

  Special recipe for scaled SAPT0 (see Manual):
    Electrostatics sSAPT0          -0.01320542 [mEh]      -0.00828652 [kcal/mol]      -0.03467082 [kJ/mol]
    Exchange sSAPT0                 0.00000000 [mEh]       0.00000000 [kcal/mol]       0.00000001 [kJ/mol]
    Induction sSAPT0               -0.00006170 [mEh]      -0.00003872 [kcal/mol]      -0.00016200 [kJ/mol]
    Dispersion sSAPT0              -0.00201435 [mEh]      -0.00126402 [kcal/mol]      -0.00528867 [kJ/mol]
  Total sSAPT0                     -0.01528147 [mEh]      -0.00958927 [kcal/mol]      -0.04012149 [kJ/mol]
  --------------------------------------------------------------------------------------------------------

*** tstop() called on ds1 at Mon Oct  4 13:33:29 2021
Module time:
	user time   =      47.26 seconds =       0.79 minutes
	system time =       4.02 seconds =       0.07 minutes
	total time  =         10 seconds =       0.17 minutes
Total time:
	user time   =     106.21 seconds =       1.77 minutes
	system time =       5.40 seconds =       0.09 minutes
	total time  =         23 seconds =       0.38 minutes


Warning! sapt0 does not have an associated derived wavefunction.The returned wavefunction is the dimer SCF wavefunction.


    Psi4 stopped on: Monday, 04 October 2021 01:33PM
    Psi4 wall time for execution: 0:00:22.94

*** Psi4 exiting successfully. Buy a developer a beer!
