
    -----------------------------------------------------------------------
          Psi4: An Open-Source Ab Initio Electronic Structure Package
                               Psi4 1.4rc3 

                         Git: Rev {HEAD} 080dba6 


    D. G. A. Smith, L. A. Burns, A. C. Simmonett, R. M. Parrish,
    M. C. Schieber, R. Galvelis, P. Kraus, H. Kruse, R. Di Remigio,
    A. Alenaizan, A. M. James, S. Lehtola, J. P. Misiewicz, M. Scheurer,
    R. A. Shaw, J. B. Schriber, Y. Xie, Z. L. Glick, D. A. Sirianni,
    J. S. O'Brien, J. M. Waldrop, A. Kumar, E. G. Hohenstein,
    B. P. Pritchard, B. R. Brooks, H. F. Schaefer III, A. Yu. Sokolov,
    K. Patkowski, A. E. DePrince III, U. Bozkaya, R. A. King,
    F. A. Evangelista, J. M. Turney, T. D. Crawford, C. D. Sherrill,
    J. Chem. Phys. 152(18) 184108 (2020). https://doi.org/10.1063/5.0006002

                            Additional Code Authors
    E. T. Seidl, C. L. Janssen, E. F. Valeev, M. L. Leininger,
    J. F. Gonthier, R. M. Richard, H. R. McAlexander, M. Saitow, X. Wang,
    P. Verma, and M. H. Lechner

             Previous Authors, Complete List of Code Contributors,
                       and Citations for Specific Modules
    https://github.com/psi4/psi4/blob/master/codemeta.json
    https://github.com/psi4/psi4/graphs/contributors
    http://psicode.org/psi4manual/master/introduction.html#citing-psifour

    -----------------------------------------------------------------------


    Psi4 started on: Monday, 04 October 2021 02:10PM

    Process ID: 9757
    Host:       ds1
    PSIDATADIR: /theoryfs2/ds/csargent/miniconda3/envs/cle/share/psi4
    Memory:     500.0 MiB
    Threads:    6
    
  ==> Input File <==

--------------------------------------------------------------------------
# PSI4 file produced by CrystaLattE

# Generated from:               pyrazole.xyz
# Psithon input for N-mer:      2mer-0+195
# Number of atoms per monomer:  [9, 9]
# Number of replicas:           1
# COM priority:                 4.432637720224e-05
# Minimum COM separations:      14.952 
# Separation priority:          7.946633093596e-05
# Minimum monomer separations:  12.309 
# Cutoff priority:              3.416469505800e-06
# Nuclear repulsion energy:     379.0614552020815

memory 7 GB

molecule Dimer_0_195 {
  N            6.27981210      -4.25303372       0.19313865 
  N            6.06870777      -2.28125697       1.80544317 
  H            3.66871156      -5.64628941      -1.96684001 
  H            0.69034521      -2.37545694      -0.42864236 
  H            3.35917442       0.17650601       3.09265017 
  H            7.35266782      -1.99461311       2.90680702 
  C            3.77952586      -1.21508453       1.76858172 
  C            2.38242998      -2.55505538       0.04607681 
  C            4.01771468      -4.38410490      -0.88761863 
--
  N           10.53656684      -9.49302627     -27.14001149 
  N           10.65542910      -7.45511923     -25.60283778 
  H           13.20972957     -11.89393623     -27.85804185 
  H           16.10436613      -9.45139749     -25.10290434 
  H           13.16794206      -5.73834848     -23.19826803 
  H            9.19302089      -6.64514217     -25.21707245 
  C           12.93826550      -7.12494356     -24.57378893 
  C           14.42125794      -9.05461578     -25.46371140 
  C           12.85995261     -10.43978359     -27.05540934 
units = au
no_com
no_reorient
}

set {
  e_convergence 10
  d_convergence 10
  scf_type df
  mp2_type df
  cc_type df
  freeze_core true
}

energy('sapt0/aug-cc-pvdz')

--------------------------------------------------------------------------

  Memory set to   6.519 GiB by Python driver.

Scratch directory: /scratch/csargent/psi4.7158.66302/

Scratch directory: /scratch/csargent/psi4.7158.66302/

  //>>>>>>>>>>>>>>>>>>>>>>>>>>>>>>>>>>>//
  //              Dimer HF             //
  //<<<<<<<<<<<<<<<<<<<<<<<<<<<<<<<<<<<//


*** tstart() called on ds1
*** at Mon Oct  4 14:10:39 2021

   => Loading Basis Set <=

    Name: AUG-CC-PVDZ
    Role: ORBITAL
    Keyword: BASIS
    atoms 1-2, 10-11 entry N          line   218 file /theoryfs2/ds/csargent/miniconda3/envs/cle/share/psi4/basis/aug-cc-pvdz.gbs 
    atoms 3-6, 12-15 entry H          line    40 file /theoryfs2/ds/csargent/miniconda3/envs/cle/share/psi4/basis/aug-cc-pvdz.gbs 
    atoms 7-9, 16-18 entry C          line   182 file /theoryfs2/ds/csargent/miniconda3/envs/cle/share/psi4/basis/aug-cc-pvdz.gbs 


         ---------------------------------------------------------
                                   SCF
               by Justin Turney, Rob Parrish, Andy Simmonett
                          and Daniel G. A. Smith
                              RHF Reference
                        6 Threads,   6675 MiB Core
         ---------------------------------------------------------

  ==> Geometry <==

    Molecular point group: c1
    Full point group: C1

    Geometry (in Bohr), charge = 0, multiplicity = 1:

       Center              X                  Y                   Z               Mass       
    ------------   -----------------  -----------------  -----------------  -----------------
         N            6.279812100000    -4.253033720000     0.193138650000    14.003074004430
         N            6.068707770000    -2.281256970000     1.805443170000    14.003074004430
         H            3.668711560000    -5.646289410000    -1.966840010000     1.007825032230
         H            0.690345210000    -2.375456940000    -0.428642360000     1.007825032230
         H            3.359174420000     0.176506010000     3.092650170000     1.007825032230
         H            7.352667820000    -1.994613110000     2.906807020000     1.007825032230
         C            3.779525860000    -1.215084530000     1.768581720000    12.000000000000
         C            2.382429980000    -2.555055380000     0.046076810000    12.000000000000
         C            4.017714680000    -4.384104900000    -0.887618630000    12.000000000000
         N           10.536566840000    -9.493026270000   -27.140011490000    14.003074004430
         N           10.655429100000    -7.455119230000   -25.602837780000    14.003074004430
         H           13.209729570000   -11.893936230000   -27.858041850000     1.007825032230
         H           16.104366130000    -9.451397490000   -25.102904340000     1.007825032230
         H           13.167942060000    -5.738348480000   -23.198268030000     1.007825032230
         H            9.193020890000    -6.645142170000   -25.217072450000     1.007825032230
         C           12.938265500000    -7.124943560000   -24.573788930000    12.000000000000
         C           14.421257940000    -9.054615780000   -25.463711400000    12.000000000000
         C           12.859952610000   -10.439783590000   -27.055409340000    12.000000000000

  Running in c1 symmetry.

  Rotational constants: A =      0.02753  B =      0.00097  C =      0.00095 [cm^-1]
  Rotational constants: A =    825.38888  B =     29.16433  C =     28.33701 [MHz]
  Nuclear repulsion =  379.061455250643348

  Charge       = 0
  Multiplicity = 1
  Electrons    = 72
  Nalpha       = 36
  Nbeta        = 36

  ==> Algorithm <==

  SCF Algorithm Type is DF.
  DIIS enabled.
  MOM disabled.
  Fractional occupation disabled.
  Guess Type is SAD.
  Energy threshold   = 1.00e-10
  Density threshold  = 1.00e-10
  Integral threshold = 1.00e-12

  ==> Primary Basis <==

  Basis Set: AUG-CC-PVDZ
    Blend: AUG-CC-PVDZ
    Number of shells: 130
    Number of basis functions: 302
    Number of Cartesian functions: 322
    Spherical Harmonics?: true
    Max angular momentum: 2

   => Loading Basis Set <=

    Name: (AUG-CC-PVDZ AUX)
    Role: JKFIT
    Keyword: DF_BASIS_SCF
    atoms 1-2, 10-11 entry N          line   212 file /theoryfs2/ds/csargent/miniconda3/envs/cle/share/psi4/basis/aug-cc-pvdz-jkfit.gbs 
    atoms 3-6, 12-15 entry H          line    70 file /theoryfs2/ds/csargent/miniconda3/envs/cle/share/psi4/basis/aug-cc-pvdz-jkfit.gbs 
    atoms 7-9, 16-18 entry C          line   154 file /theoryfs2/ds/csargent/miniconda3/envs/cle/share/psi4/basis/aug-cc-pvdz-jkfit.gbs 

  ==> Integral Setup <==

  ==> DiskDFJK: Density-Fitted J/K Matrices <==

    J tasked:                  Yes
    K tasked:                  Yes
    wK tasked:                  No
    OpenMP threads:              6
    Integrals threads:           6
    Memory [MiB]:             5006
    Algorithm:                Core
    Integral Cache:           SAVE
    Schwarz Cutoff:          1E-12
    Fitting Condition:       1E-10

   => Auxiliary Basis Set <=

  Basis Set: (AUG-CC-PVDZ AUX)
    Blend: AUG-CC-PVDZ-JKFIT
    Number of shells: 376
    Number of basis functions: 1116
    Number of Cartesian functions: 1290
    Spherical Harmonics?: true
    Max angular momentum: 3

  Minimum eigenvalue in the overlap matrix is 3.0320847808E-05.
  Reciprocal condition number of the overlap matrix is 2.4864202573E-06.
    Using symmetric orthogonalization.

  ==> Pre-Iterations <==

  SCF Guess: Superposition of Atomic Densities via on-the-fly atomic UHF (no occupation information).

   -------------------------
    Irrep   Nso     Nmo    
   -------------------------
     A        302     302 
   -------------------------
    Total     302     302
   -------------------------

  ==> Iterations <==

                           Total Energy        Delta E     RMS |[F,P]|

   @DF-RHF iter SAD:  -449.44445656733899   -4.49444e+02   0.00000e+00 
   @DF-RHF iter   1:  -449.27116288299140    1.73294e-01   2.12786e-03 DIIS
   @DF-RHF iter   2:  -449.47987998889442   -2.08717e-01   9.73136e-04 DIIS
   @DF-RHF iter   3:  -449.52165559385378   -4.17756e-02   2.09919e-04 DIIS
   @DF-RHF iter   4:  -449.52442074231726   -2.76515e-03   8.53784e-05 DIIS
   @DF-RHF iter   5:  -449.52477568174021   -3.54939e-04   1.69504e-05 DIIS
   @DF-RHF iter   6:  -449.52480956215635   -3.38804e-05   7.01856e-06 DIIS
   @DF-RHF iter   7:  -449.52481747093537   -7.90878e-06   3.08103e-06 DIIS
   @DF-RHF iter   8:  -449.52481898435229   -1.51342e-06   1.43659e-06 DIIS
   @DF-RHF iter   9:  -449.52481931789293   -3.33541e-07   3.98963e-07 DIIS
   @DF-RHF iter  10:  -449.52481933537183   -1.74789e-08   1.20994e-07 DIIS
   @DF-RHF iter  11:  -449.52481933674488   -1.37305e-09   2.81780e-08 DIIS
   @DF-RHF iter  12:  -449.52481933683646   -9.15747e-11   8.17792e-09 DIIS
   @DF-RHF iter  13:  -449.52481933684430   -7.84439e-12   3.97840e-09 DIIS
   @DF-RHF iter  14:  -449.52481933684663   -2.33058e-12   1.36798e-09 DIIS
   @DF-RHF iter  15:  -449.52481933684658    5.68434e-14   5.83802e-10 DIIS
   @DF-RHF iter  16:  -449.52481933684714   -5.68434e-13   1.78438e-10 DIIS
   @DF-RHF iter  17:  -449.52481933684697    1.70530e-13   6.44576e-11 DIIS
  Energy and wave function converged.


  ==> Post-Iterations <==

    Orbital Energies [Eh]
    ---------------------

    Doubly Occupied:                                                      

       1A    -15.637114     2A    -15.635282     3A    -15.593222  
       4A    -15.591359     5A    -11.280771     6A    -11.278923  
       7A    -11.238694     8A    -11.236839     9A    -11.210774  
      10A    -11.208915    11A     -1.387819    12A     -1.386056  
      13A     -1.122801    14A     -1.120954    15A     -1.067786  
      16A     -1.065966    17A     -0.873661    18A     -0.871819  
      19A     -0.837955    20A     -0.836093    21A     -0.758168  
      22A     -0.756288    23A     -0.646640    24A     -0.644803  
      25A     -0.621724    26A     -0.619878    27A     -0.610038  
      28A     -0.608230    29A     -0.584804    30A     -0.582936  
      31A     -0.462316    32A     -0.460495    33A     -0.371629  
      34A     -0.369782    35A     -0.346940    36A     -0.345094  

    Virtual:                                                              

      37A      0.030032    38A      0.031903    39A      0.041494  
      40A      0.043293    41A      0.048357    42A      0.050105  
      43A      0.062672    44A      0.064524    45A      0.100181  
      46A      0.102083    47A      0.103111    48A      0.104958  
      49A      0.116176    50A      0.118075    51A      0.125327  
      52A      0.127225    53A      0.132279    54A      0.134000  
      55A      0.137483    56A      0.139336    57A      0.140591  
      58A      0.142706    59A      0.156077    60A      0.157874  
      61A      0.163694    62A      0.165619    63A      0.170162  
      64A      0.172034    65A      0.177447    66A      0.179550  
      67A      0.195201    68A      0.196995    69A      0.203913  
      70A      0.205265    71A      0.205766    72A      0.207066  
      73A      0.239325    74A      0.241166    75A      0.242716  
      76A      0.244044    77A      0.244597    78A      0.245834  
      79A      0.270177    80A      0.272039    81A      0.278215  
      82A      0.280094    83A      0.300054    84A      0.301838  
      85A      0.324243    86A      0.326130    87A      0.351488  
      88A      0.353299    89A      0.354502    90A      0.356347  
      91A      0.374052    92A      0.375929    93A      0.395197  
      94A      0.397136    95A      0.401876    96A      0.403723  
      97A      0.414158    98A      0.415968    99A      0.431259  
     100A      0.433085   101A      0.442493   102A      0.444288  
     103A      0.452497   104A      0.454343   105A      0.458936  
     106A      0.460803   107A      0.477795   108A      0.479632  
     109A      0.497664   110A      0.499484   111A      0.507816  
     112A      0.509623   113A      0.521064   114A      0.522958  
     115A      0.540605   116A      0.542626   117A      0.573563  
     118A      0.575387   119A      0.585446   120A      0.587302  
     121A      0.589678   122A      0.591524   123A      0.601532  
     124A      0.603417   125A      0.620062   126A      0.621933  
     127A      0.645217   128A      0.647080   129A      0.654433  
     130A      0.656296   131A      0.675277   132A      0.677131  
     133A      0.697160   134A      0.698985   135A      0.699513  
     136A      0.701338   137A      0.720778   138A      0.722610  
     139A      0.724256   140A      0.726105   141A      0.746820  
     142A      0.748680   143A      0.757700   144A      0.759587  
     145A      0.772419   146A      0.774239   147A      0.780584  
     148A      0.782432   149A      0.827595   150A      0.829423  
     151A      0.837362   152A      0.839204   153A      0.847491  
     154A      0.849388   155A      0.880495   156A      0.882343  
     157A      0.887897   158A      0.889752   159A      0.906048  
     160A      0.907897   161A      0.923926   162A      0.925751  
     163A      0.941677   164A      0.943543   165A      0.977332  
     166A      0.979148   167A      0.983951   168A      0.985806  
     169A      1.010217   170A      1.012070   171A      1.045708  
     172A      1.047551   173A      1.065615   174A      1.067469  
     175A      1.099965   176A      1.101810   177A      1.127175  
     178A      1.129040   179A      1.133306   180A      1.135118  
     181A      1.149356   182A      1.151217   183A      1.174276  
     184A      1.176102   185A      1.219651   186A      1.221471  
     187A      1.268666   188A      1.270519   189A      1.302442  
     190A      1.304318   191A      1.310504   192A      1.312373  
     193A      1.364908   194A      1.366727   195A      1.400151  
     196A      1.401991   197A      1.473789   198A      1.475635  
     199A      1.511134   200A      1.512976   201A      1.525237  
     202A      1.527096   203A      1.560086   204A      1.561921  
     205A      1.590007   206A      1.591878   207A      1.607774  
     208A      1.609638   209A      1.636559   210A      1.638403  
     211A      1.668552   212A      1.670504   213A      1.702755  
     214A      1.704613   215A      1.723054   216A      1.724915  
     217A      1.748309   218A      1.750201   219A      1.763480  
     220A      1.765329   221A      1.804147   222A      1.805973  
     223A      1.874762   224A      1.876572   225A      1.931496  
     226A      1.933362   227A      1.942679   228A      1.944530  
     229A      1.987168   230A      1.989077   231A      2.020555  
     232A      2.022402   233A      2.056727   234A      2.058616  
     235A      2.087959   236A      2.089777   237A      2.143797  
     238A      2.145663   239A      2.189121   240A      2.190967  
     241A      2.199932   242A      2.201778   243A      2.229571  
     244A      2.231407   245A      2.274931   246A      2.276770  
     247A      2.306758   248A      2.308592   249A      2.359821  
     250A      2.361596   251A      2.388235   252A      2.390083  
     253A      2.392946   254A      2.394724   255A      2.434345  
     256A      2.436140   257A      2.464084   258A      2.465891  
     259A      2.530901   260A      2.532731   261A      2.569337  
     262A      2.571140   263A      2.583831   264A      2.585778  
     265A      2.642075   266A      2.643916   267A      2.732155  
     268A      2.733992   269A      2.825937   270A      2.827742  
     271A      2.833852   272A      2.835646   273A      2.900694  
     274A      2.902491   275A      2.917710   276A      2.919516  
     277A      2.998270   278A      3.000148   279A      3.054435  
     280A      3.056275   281A      3.091452   282A      3.093376  
     283A      3.121835   284A      3.123666   285A      3.188029  
     286A      3.189939   287A      3.221118   288A      3.222977  
     289A      3.296964   290A      3.298840   291A      3.379360  
     292A      3.381193   293A      3.519832   294A      3.521706  
     295A      3.685674   296A      3.687240   297A      3.888433  
     298A      3.890193   299A      4.208510   300A      4.210270  
     301A      4.462348   302A      4.463991  

    Final Occupation by Irrep:
              A 
    DOCC [    36 ]

  @DF-RHF Final Energy:  -449.52481933684697

   => Energetics <=

    Nuclear Repulsion Energy =            379.0614552506433483
    One-Electron Energy =               -1358.6274122064869516
    Two-Electron Energy =                 530.0411376189966859
    Total Energy =                       -449.5248193368469174

Computation Completed


Properties will be evaluated at   0.000000,   0.000000,   0.000000 [a0]

Properties computed using the SCF density matrix

  Nuclear Dipole Moment: [e a0]
     X:   603.9244      Y:  -416.5873      Z:  -909.9774

  Electronic Dipole Moment: [e a0]
     X:  -604.0369      Y:   417.7832      Z:   911.2653

  Dipole Moment: [e a0]
     X:    -0.1125      Y:     1.1959      Z:     1.2879     Total:     1.7611

  Dipole Moment: [D]
     X:    -0.2859      Y:     3.0398      Z:     3.2735     Total:     4.4764


*** tstop() called on ds1 at Mon Oct  4 14:10:44 2021
Module time:
	user time   =      23.68 seconds =       0.39 minutes
	system time =       0.58 seconds =       0.01 minutes
	total time  =          5 seconds =       0.08 minutes
Total time:
	user time   =      23.68 seconds =       0.39 minutes
	system time =       0.58 seconds =       0.01 minutes
	total time  =          5 seconds =       0.08 minutes

  //>>>>>>>>>>>>>>>>>>>>>>>>>>>>>>>>>>>//
  //            Monomer A HF           //
  //<<<<<<<<<<<<<<<<<<<<<<<<<<<<<<<<<<<//


*** tstart() called on ds1
*** at Mon Oct  4 14:10:44 2021

   => Loading Basis Set <=

    Name: AUG-CC-PVDZ
    Role: ORBITAL
    Keyword: BASIS
    atoms 1-2, 10-11 entry N          line   218 file /theoryfs2/ds/csargent/miniconda3/envs/cle/share/psi4/basis/aug-cc-pvdz.gbs 
    atoms 3-6, 12-15 entry H          line    40 file /theoryfs2/ds/csargent/miniconda3/envs/cle/share/psi4/basis/aug-cc-pvdz.gbs 
    atoms 7-9, 16-18 entry C          line   182 file /theoryfs2/ds/csargent/miniconda3/envs/cle/share/psi4/basis/aug-cc-pvdz.gbs 


         ---------------------------------------------------------
                                   SCF
               by Justin Turney, Rob Parrish, Andy Simmonett
                          and Daniel G. A. Smith
                              RHF Reference
                        6 Threads,   6675 MiB Core
         ---------------------------------------------------------

  ==> Geometry <==

    Molecular point group: c1
    Full point group: C1

    Geometry (in Bohr), charge = 0, multiplicity = 1:

       Center              X                  Y                   Z               Mass       
    ------------   -----------------  -----------------  -----------------  -----------------
         N            6.279812100000    -4.253033720000     0.193138650000    14.003074004430
         N            6.068707770000    -2.281256970000     1.805443170000    14.003074004430
         H            3.668711560000    -5.646289410000    -1.966840010000     1.007825032230
         H            0.690345210000    -2.375456940000    -0.428642360000     1.007825032230
         H            3.359174420000     0.176506010000     3.092650170000     1.007825032230
         H            7.352667820000    -1.994613110000     2.906807020000     1.007825032230
         C            3.779525860000    -1.215084530000     1.768581720000    12.000000000000
         C            2.382429980000    -2.555055380000     0.046076810000    12.000000000000
         C            4.017714680000    -4.384104900000    -0.887618630000    12.000000000000
      Gh(N)          10.536566840000    -9.493026270000   -27.140011490000    14.003074004430
      Gh(N)          10.655429100000    -7.455119230000   -25.602837780000    14.003074004430
      Gh(H)          13.209729570000   -11.893936230000   -27.858041850000     1.007825032230
      Gh(H)          16.104366130000    -9.451397490000   -25.102904340000     1.007825032230
      Gh(H)          13.167942060000    -5.738348480000   -23.198268030000     1.007825032230
      Gh(H)           9.193020890000    -6.645142170000   -25.217072450000     1.007825032230
      Gh(C)          12.938265500000    -7.124943560000   -24.573788930000    12.000000000000
      Gh(C)          14.421257940000    -9.054615780000   -25.463711400000    12.000000000000
      Gh(C)          12.859952610000   -10.439783590000   -27.055409340000    12.000000000000

  Running in c1 symmetry.

  Rotational constants: A =      0.02753  B =      0.00097  C =      0.00095 [cm^-1]
  Rotational constants: A =    825.38888  B =     29.16433  C =     28.33701 [MHz]
  Nuclear repulsion =  166.624056450327203

  Charge       = 0
  Multiplicity = 1
  Electrons    = 36
  Nalpha       = 18
  Nbeta        = 18

  ==> Algorithm <==

  SCF Algorithm Type is DF.
  DIIS enabled.
  MOM disabled.
  Fractional occupation disabled.
  Guess Type is SAD.
  Energy threshold   = 1.00e-10
  Density threshold  = 1.00e-10
  Integral threshold = 1.00e-12

  ==> Primary Basis <==

  Basis Set: AUG-CC-PVDZ
    Blend: AUG-CC-PVDZ
    Number of shells: 130
    Number of basis functions: 302
    Number of Cartesian functions: 322
    Spherical Harmonics?: true
    Max angular momentum: 2

   => Loading Basis Set <=

    Name: (AUG-CC-PVDZ AUX)
    Role: JKFIT
    Keyword: DF_BASIS_SCF
    atoms 1-2, 10-11 entry N          line   212 file /theoryfs2/ds/csargent/miniconda3/envs/cle/share/psi4/basis/aug-cc-pvdz-jkfit.gbs 
    atoms 3-6, 12-15 entry H          line    70 file /theoryfs2/ds/csargent/miniconda3/envs/cle/share/psi4/basis/aug-cc-pvdz-jkfit.gbs 
    atoms 7-9, 16-18 entry C          line   154 file /theoryfs2/ds/csargent/miniconda3/envs/cle/share/psi4/basis/aug-cc-pvdz-jkfit.gbs 

  ==> Integral Setup <==

  ==> DiskDFJK: Density-Fitted J/K Matrices <==

    J tasked:                  Yes
    K tasked:                  Yes
    wK tasked:                  No
    OpenMP threads:              6
    Integrals threads:           6
    Memory [MiB]:             5006
    Algorithm:                Core
    Integral Cache:           LOAD
    Schwarz Cutoff:          1E-12
    Fitting Condition:       1E-10

   => Auxiliary Basis Set <=

  Basis Set: (AUG-CC-PVDZ AUX)
    Blend: AUG-CC-PVDZ-JKFIT
    Number of shells: 376
    Number of basis functions: 1116
    Number of Cartesian functions: 1290
    Spherical Harmonics?: true
    Max angular momentum: 3

  Minimum eigenvalue in the overlap matrix is 3.0320847808E-05.
  Reciprocal condition number of the overlap matrix is 2.4864202573E-06.
    Using symmetric orthogonalization.

  ==> Pre-Iterations <==

  SCF Guess: Superposition of Atomic Densities via on-the-fly atomic UHF (no occupation information).

   -------------------------
    Irrep   Nso     Nmo    
   -------------------------
     A        302     302 
   -------------------------
    Total     302     302
   -------------------------

  ==> Iterations <==

                           Total Energy        Delta E     RMS |[F,P]|

   @DF-RHF iter SAD:  -224.72194801360769   -2.24722e+02   0.00000e+00 
   @DF-RHF iter   1:  -224.63549170846281    8.64563e-02   1.50472e-03 DIIS
   @DF-RHF iter   2:  -224.73984614480281   -1.04354e-01   6.88462e-04 DIIS
   @DF-RHF iter   3:  -224.76075488574764   -2.09087e-02   1.48626e-04 DIIS
   @DF-RHF iter   4:  -224.76213932957705   -1.38444e-03   6.05310e-05 DIIS
   @DF-RHF iter   5:  -224.76231768434963   -1.78355e-04   1.19893e-05 DIIS
   @DF-RHF iter   6:  -224.76233464182283   -1.69575e-05   4.96772e-06 DIIS
   @DF-RHF iter   7:  -224.76233859786007   -3.95604e-06   2.18806e-06 DIIS
   @DF-RHF iter   8:  -224.76233935860267   -7.60743e-07   1.01700e-06 DIIS
   @DF-RHF iter   9:  -224.76233952624449   -1.67642e-07   2.83302e-07 DIIS
   @DF-RHF iter  10:  -224.76233953506471   -8.82022e-09   8.55547e-08 DIIS
   @DF-RHF iter  11:  -224.76233953575490   -6.90193e-10   1.99714e-08 DIIS
   @DF-RHF iter  12:  -224.76233953580083   -4.59295e-11   5.81092e-09 DIIS
   @DF-RHF iter  13:  -224.76233953580513   -4.29168e-12   2.83097e-09 DIIS
   @DF-RHF iter  14:  -224.76233953580532   -1.98952e-13   9.75191e-10 DIIS
   @DF-RHF iter  15:  -224.76233953580609   -7.67386e-13   4.15548e-10 DIIS
   @DF-RHF iter  16:  -224.76233953580621   -1.13687e-13   1.25998e-10 DIIS
   @DF-RHF iter  17:  -224.76233953580567    5.40012e-13   4.47779e-11 DIIS
  Energy and wave function converged.


  ==> Post-Iterations <==

    Orbital Energies [Eh]
    ---------------------

    Doubly Occupied:                                                      

       1A    -15.636223     2A    -15.592313     3A    -11.279894  
       4A    -11.237784     5A    -11.209891     6A     -1.386922  
       7A     -1.121901     8A     -1.066898     9A     -0.872768  
      10A     -0.837061    11A     -0.757292    12A     -0.645746  
      13A     -0.620834    14A     -0.609140    15A     -0.583920  
      16A     -0.461404    17A     -0.370721    18A     -0.346048  

    Virtual:                                                              

      19A      0.023672    20A      0.030764    21A      0.040904  
      22A      0.042468    23A      0.045095    24A      0.049182  
      25A      0.063471    26A      0.066955    27A      0.084988  
      28A      0.091665    29A      0.099932    30A      0.100999  
      31A      0.104028    32A      0.117152    33A      0.119334  
      34A      0.126270    35A      0.126844    36A      0.129311  
      37A      0.133068    38A      0.134318    39A      0.135189  
      40A      0.138404    41A      0.141564    42A      0.156889  
      43A      0.159495    44A      0.164577    45A      0.166981  
      46A      0.171075    47A      0.178293    48A      0.180330  
      49A      0.196019    50A      0.196515    51A      0.202482  
      52A      0.204797    53A      0.206169    54A      0.223888  
      55A      0.226194    56A      0.229189    57A      0.236533  
      58A      0.240240    59A      0.243629    60A      0.244967  
      61A      0.264951    62A      0.271041    63A      0.272129  
      64A      0.279081    65A      0.301016    66A      0.322853  
      67A      0.325150    68A      0.341145    69A      0.352358  
      70A      0.355376    71A      0.367549    72A      0.373895  
      73A      0.374908    74A      0.384738    75A      0.396067  
      76A      0.402742    77A      0.414998    78A      0.428489  
      79A      0.432140    80A      0.433119    81A      0.442216  
      82A      0.443161    83A      0.443638    84A      0.453393  
      85A      0.457019    86A      0.458422    87A      0.459816  
      88A      0.462874    89A      0.478655    90A      0.498543  
      91A      0.508686    92A      0.510777    93A      0.520453  
      94A      0.521932    95A      0.534170    96A      0.539028  
      97A      0.541601    98A      0.560318    99A      0.569862  
     100A      0.572867   101A      0.574433   102A      0.586323  
     103A      0.590541   104A      0.596194   105A      0.602414  
     106A      0.614342   107A      0.620952   108A      0.622245  
     109A      0.634538   110A      0.646110   111A      0.655298  
     112A      0.676162   113A      0.691871   114A      0.698042  
     115A      0.700392   116A      0.708783   117A      0.720478  
     118A      0.721667   119A      0.725115   120A      0.736733  
     121A      0.746365   122A      0.747711   123A      0.758593  
     124A      0.773319   125A      0.781483   126A      0.790657  
     127A      0.799172   128A      0.815464   129A      0.821906  
     130A      0.828506   131A      0.838230   132A      0.848401  
     133A      0.852982   134A      0.856173   135A      0.872028  
     136A      0.881396   137A      0.882121   138A      0.888767  
     139A      0.896719   140A      0.906951   141A      0.917178  
     142A      0.924817   143A      0.942584   144A      0.953115  
     145A      0.978222   146A      0.984853   147A      0.998209  
     148A      1.011149   149A      1.025207   150A      1.031256  
     151A      1.046615   152A      1.052701   153A      1.066503  
     154A      1.072249   155A      1.082011   156A      1.100852  
     157A      1.109252   158A      1.128077   159A      1.134196  
     160A      1.150236   161A      1.159862   162A      1.167332  
     163A      1.175168   164A      1.186047   165A      1.220550  
     166A      1.222819   167A      1.238151   168A      1.269039  
     169A      1.269562   170A      1.294807   171A      1.303344  
     172A      1.311400   173A      1.316232   174A      1.341766  
     175A      1.365808   176A      1.382911   177A      1.401044  
     178A      1.436086   179A      1.445847   180A      1.474691  
     181A      1.494330   182A      1.508159   183A      1.512029  
     184A      1.526132   185A      1.560990   186A      1.590887  
     187A      1.608669   188A      1.637437   189A      1.669481  
     190A      1.677818   191A      1.689976   192A      1.703638  
     193A      1.723953   194A      1.749216   195A      1.764374  
     196A      1.805048   197A      1.875633   198A      1.932391  
     199A      1.943558   200A      1.988067   201A      2.021451  
     202A      2.042198   203A      2.057613   204A      2.088839  
     205A      2.110285   206A      2.135925   207A      2.144689  
     208A      2.169279   209A      2.190006   210A      2.200828  
     211A      2.217766   212A      2.230457   213A      2.234993  
     214A      2.263008   215A      2.275825   216A      2.278825  
     217A      2.290415   218A      2.307642   219A      2.336805  
     220A      2.360716   221A      2.381676   222A      2.389134  
     223A      2.393822   224A      2.395705   225A      2.435246  
     226A      2.445031   227A      2.464967   228A      2.479442  
     229A      2.501088   230A      2.514783   231A      2.531798  
     232A      2.549991   233A      2.570232   234A      2.584716  
     235A      2.632460   236A      2.642962   237A      2.668688  
     238A      2.704191   239A      2.720046   240A      2.733036  
     241A      2.826838   242A      2.829073   243A      2.834751  
     244A      2.870982   245A      2.891185   246A      2.901588  
     247A      2.918600   248A      2.946208   249A      2.999157  
     250A      3.029134   251A      3.055329   252A      3.090895  
     253A      3.092359   254A      3.122731   255A      3.141180  
     256A      3.183004   257A      3.188938   258A      3.222008  
     259A      3.255280   260A      3.290217   261A      3.297866  
     262A      3.356783   263A      3.380236   264A      3.396732  
     265A      3.424561   266A      3.449324   267A      3.488347  
     268A      3.498709   269A      3.520728   270A      3.634688  
     271A      3.668087   272A      3.686563   273A      3.736754  
     274A      3.771251   275A      3.852291   276A      3.889328  
     277A      3.965693   278A      4.036750   279A      4.095904  
     280A      4.209437   281A      4.245222   282A      4.449372  
     283A      4.463236   284A      4.659565   285A      4.709301  
     286A      4.751099   287A      4.811976   288A      4.995993  
     289A      5.077849   290A      5.242401   291A      5.532604  
     292A      5.670164   293A      5.827830   294A      6.108153  
     295A      6.319337   296A      6.708696   297A      6.968629  
     298A     18.112324   299A     18.649213   300A     19.374881  
     301A     25.246531   302A     25.706464  

    Final Occupation by Irrep:
              A 
    DOCC [    18 ]

  @DF-RHF Final Energy:  -224.76233953580567

   => Energetics <=

    Nuclear Repulsion Energy =            166.6240564503272026
    One-Electron Energy =                -633.4992735650478153
    Two-Electron Energy =                 242.1128775789149472
    Total Energy =                       -224.7623395358056655

Computation Completed


Properties will be evaluated at   0.000000,   0.000000,   0.000000 [a0]

Properties computed using the SCF density matrix

  Nuclear Dipole Moment: [e a0]
     X:   162.5886      Y:  -104.5054      Z:    23.1563

  Electronic Dipole Moment: [e a0]
     X:  -162.9913      Y:   105.1370      Z:   -22.5767

  Dipole Moment: [e a0]
     X:    -0.4027      Y:     0.6317      Z:     0.5796     Total:     0.9472

  Dipole Moment: [D]
     X:    -1.0235      Y:     1.6055      Z:     1.4733     Total:     2.4075


*** tstop() called on ds1 at Mon Oct  4 14:10:48 2021
Module time:
	user time   =      17.31 seconds =       0.29 minutes
	system time =       0.34 seconds =       0.01 minutes
	total time  =          4 seconds =       0.07 minutes
Total time:
	user time   =      41.07 seconds =       0.68 minutes
	system time =       0.92 seconds =       0.02 minutes
	total time  =          9 seconds =       0.15 minutes

  //>>>>>>>>>>>>>>>>>>>>>>>>>>>>>>>>>>>//
  //            Monomer B HF           //
  //<<<<<<<<<<<<<<<<<<<<<<<<<<<<<<<<<<<//


*** tstart() called on ds1
*** at Mon Oct  4 14:10:48 2021

   => Loading Basis Set <=

    Name: AUG-CC-PVDZ
    Role: ORBITAL
    Keyword: BASIS
    atoms 1-2, 10-11 entry N          line   218 file /theoryfs2/ds/csargent/miniconda3/envs/cle/share/psi4/basis/aug-cc-pvdz.gbs 
    atoms 3-6, 12-15 entry H          line    40 file /theoryfs2/ds/csargent/miniconda3/envs/cle/share/psi4/basis/aug-cc-pvdz.gbs 
    atoms 7-9, 16-18 entry C          line   182 file /theoryfs2/ds/csargent/miniconda3/envs/cle/share/psi4/basis/aug-cc-pvdz.gbs 


         ---------------------------------------------------------
                                   SCF
               by Justin Turney, Rob Parrish, Andy Simmonett
                          and Daniel G. A. Smith
                              RHF Reference
                        6 Threads,   6675 MiB Core
         ---------------------------------------------------------

  ==> Geometry <==

    Molecular point group: c1
    Full point group: C1

    Geometry (in Bohr), charge = 0, multiplicity = 1:

       Center              X                  Y                   Z               Mass       
    ------------   -----------------  -----------------  -----------------  -----------------
      Gh(N)           6.279812100000    -4.253033720000     0.193138650000    14.003074004430
      Gh(N)           6.068707770000    -2.281256970000     1.805443170000    14.003074004430
      Gh(H)           3.668711560000    -5.646289410000    -1.966840010000     1.007825032230
      Gh(H)           0.690345210000    -2.375456940000    -0.428642360000     1.007825032230
      Gh(H)           3.359174420000     0.176506010000     3.092650170000     1.007825032230
      Gh(H)           7.352667820000    -1.994613110000     2.906807020000     1.007825032230
      Gh(C)           3.779525860000    -1.215084530000     1.768581720000    12.000000000000
      Gh(C)           2.382429980000    -2.555055380000     0.046076810000    12.000000000000
      Gh(C)           4.017714680000    -4.384104900000    -0.887618630000    12.000000000000
         N           10.536566840000    -9.493026270000   -27.140011490000    14.003074004430
         N           10.655429100000    -7.455119230000   -25.602837780000    14.003074004430
         H           13.209729570000   -11.893936230000   -27.858041850000     1.007825032230
         H           16.104366130000    -9.451397490000   -25.102904340000     1.007825032230
         H           13.167942060000    -5.738348480000   -23.198268030000     1.007825032230
         H            9.193020890000    -6.645142170000   -25.217072450000     1.007825032230
         C           12.938265500000    -7.124943560000   -24.573788930000    12.000000000000
         C           14.421257940000    -9.054615780000   -25.463711400000    12.000000000000
         C           12.859952610000   -10.439783590000   -27.055409340000    12.000000000000

  Running in c1 symmetry.

  Rotational constants: A =      0.02753  B =      0.00097  C =      0.00095 [cm^-1]
  Rotational constants: A =    825.38888  B =     29.16433  C =     28.33701 [MHz]
  Nuclear repulsion =  166.628602863791428

  Charge       = 0
  Multiplicity = 1
  Electrons    = 36
  Nalpha       = 18
  Nbeta        = 18

  ==> Algorithm <==

  SCF Algorithm Type is DF.
  DIIS enabled.
  MOM disabled.
  Fractional occupation disabled.
  Guess Type is SAD.
  Energy threshold   = 1.00e-10
  Density threshold  = 1.00e-10
  Integral threshold = 1.00e-12

  ==> Primary Basis <==

  Basis Set: AUG-CC-PVDZ
    Blend: AUG-CC-PVDZ
    Number of shells: 130
    Number of basis functions: 302
    Number of Cartesian functions: 322
    Spherical Harmonics?: true
    Max angular momentum: 2

   => Loading Basis Set <=

    Name: (AUG-CC-PVDZ AUX)
    Role: JKFIT
    Keyword: DF_BASIS_SCF
    atoms 1-2, 10-11 entry N          line   212 file /theoryfs2/ds/csargent/miniconda3/envs/cle/share/psi4/basis/aug-cc-pvdz-jkfit.gbs 
    atoms 3-6, 12-15 entry H          line    70 file /theoryfs2/ds/csargent/miniconda3/envs/cle/share/psi4/basis/aug-cc-pvdz-jkfit.gbs 
    atoms 7-9, 16-18 entry C          line   154 file /theoryfs2/ds/csargent/miniconda3/envs/cle/share/psi4/basis/aug-cc-pvdz-jkfit.gbs 

  ==> Integral Setup <==

  ==> DiskDFJK: Density-Fitted J/K Matrices <==

    J tasked:                  Yes
    K tasked:                  Yes
    wK tasked:                  No
    OpenMP threads:              6
    Integrals threads:           6
    Memory [MiB]:             5006
    Algorithm:                Core
    Integral Cache:           LOAD
    Schwarz Cutoff:          1E-12
    Fitting Condition:       1E-10

   => Auxiliary Basis Set <=

  Basis Set: (AUG-CC-PVDZ AUX)
    Blend: AUG-CC-PVDZ-JKFIT
    Number of shells: 376
    Number of basis functions: 1116
    Number of Cartesian functions: 1290
    Spherical Harmonics?: true
    Max angular momentum: 3

  Minimum eigenvalue in the overlap matrix is 3.0320847808E-05.
  Reciprocal condition number of the overlap matrix is 2.4864202573E-06.
    Using symmetric orthogonalization.

  ==> Pre-Iterations <==

  SCF Guess: Superposition of Atomic Densities via on-the-fly atomic UHF (no occupation information).

   -------------------------
    Irrep   Nso     Nmo    
   -------------------------
     A        302     302 
   -------------------------
    Total     302     302
   -------------------------

  ==> Iterations <==

                           Total Energy        Delta E     RMS |[F,P]|

   @DF-RHF iter SAD:  -224.72250855244209   -2.24723e+02   0.00000e+00 
   @DF-RHF iter   1:  -224.63556596598141    8.69426e-02   1.50490e-03 DIIS
   @DF-RHF iter   2:  -224.73993305490595   -1.04367e-01   6.88620e-04 DIIS
   @DF-RHF iter   3:  -224.76085080909144   -2.09178e-02   1.48614e-04 DIIS
   @DF-RHF iter   4:  -224.76223500773941   -1.38420e-03   6.05151e-05 DIIS
   @DF-RHF iter   5:  -224.76241325224132   -1.78245e-04   1.19848e-05 DIIS
   @DF-RHF iter   6:  -224.76243018539105   -1.69331e-05   4.96323e-06 DIIS
   @DF-RHF iter   7:  -224.76243413323400   -3.94784e-06   2.18627e-06 DIIS
   @DF-RHF iter   8:  -224.76243489277306   -7.59539e-07   1.01631e-06 DIIS
   @DF-RHF iter   9:  -224.76243506027774   -1.67505e-07   2.83280e-07 DIIS
   @DF-RHF iter  10:  -224.76243506909506   -8.81732e-09   8.55270e-08 DIIS
   @DF-RHF iter  11:  -224.76243506978454   -6.89482e-10   1.99678e-08 DIIS
   @DF-RHF iter  12:  -224.76243506983045   -4.59011e-11   5.80973e-09 DIIS
   @DF-RHF iter  13:  -224.76243506983508   -4.63274e-12   2.83582e-09 DIIS
   @DF-RHF iter  14:  -224.76243506983607   -9.94760e-13   9.79832e-10 DIIS
   @DF-RHF iter  15:  -224.76243506983624   -1.70530e-13   4.16538e-10 DIIS
   @DF-RHF iter  16:  -224.76243506983599    2.55795e-13   1.25808e-10 DIIS
   @DF-RHF iter  17:  -224.76243506983602   -2.84217e-14   4.47601e-11 DIIS
  Energy and wave function converged.


  ==> Post-Iterations <==

    Orbital Energies [Eh]
    ---------------------

    Doubly Occupied:                                                      

       1A    -15.636233     2A    -15.592291     3A    -11.279903  
       4A    -11.237759     5A    -11.209884     6A     -1.387001  
       7A     -1.121894     8A     -1.066928     9A     -0.872759  
      10A     -0.837039    11A     -0.757272    12A     -0.645745  
      13A     -0.620828    14A     -0.609177    15A     -0.583905  
      16A     -0.461413    17A     -0.370715    18A     -0.346055  

    Virtual:                                                              

      19A      0.021836    20A      0.030708    21A      0.039203  
      22A      0.042380    23A      0.043395    24A      0.049160  
      25A      0.063482    26A      0.065178    27A      0.083068  
      28A      0.089904    29A      0.098110    30A      0.100999  
      31A      0.104027    32A      0.117176    33A      0.117453  
      34A      0.124878    35A      0.126275    36A      0.127411  
      37A      0.132418    38A      0.132882    39A      0.133725  
      40A      0.138401    41A      0.141552    42A      0.156852  
      43A      0.157775    44A      0.164577    45A      0.165187  
      46A      0.171081    47A      0.178173    48A      0.178618  
      49A      0.194649    50A      0.196036    51A      0.200667  
      52A      0.204808    53A      0.206166    54A      0.222064  
      55A      0.224270    56A      0.227401    57A      0.234726  
      58A      0.240241    59A      0.243643    60A      0.244967  
      61A      0.263203    62A      0.270205    63A      0.271141  
      64A      0.279093    65A      0.301024    66A      0.321046  
      67A      0.325168    68A      0.339259    69A      0.352364  
      70A      0.355365    71A      0.365685    72A      0.372057  
      73A      0.374914    74A      0.382888    75A      0.396099  
      76A      0.402747    77A      0.415007    78A      0.426685  
      79A      0.431229    80A      0.432149    81A      0.440375  
      82A      0.441540    83A      0.443383    84A      0.453414  
      85A      0.455200    86A      0.456600    87A      0.459820  
      88A      0.461038    89A      0.478656    90A      0.498544  
      91A      0.508680    92A      0.508936    93A      0.518626  
      94A      0.521958    95A      0.532316    96A      0.537221  
      97A      0.541617    98A      0.558517    99A      0.568035  
     100A      0.571021   101A      0.574431   102A      0.586323  
     103A      0.590548   104A      0.594351   105A      0.602432  
     106A      0.612511   107A      0.620429   108A      0.620976  
     109A      0.632687   110A      0.646112   111A      0.655313  
     112A      0.676169   113A      0.690026   114A      0.698040  
     115A      0.700384   116A      0.706945   117A      0.718650  
     118A      0.721652   119A      0.725121   120A      0.734879  
     121A      0.744530   122A      0.747718   123A      0.758644  
     124A      0.773302   125A      0.781476   126A      0.788872  
     127A      0.797297   128A      0.813620   129A      0.820082  
     130A      0.828515   131A      0.838240   132A      0.848385  
     133A      0.851150   134A      0.854297   135A      0.870195  
     136A      0.880269   137A      0.881402   138A      0.888763  
     139A      0.894884   140A      0.906951   141A      0.915336  
     142A      0.924808   143A      0.942600   144A      0.951265  
     145A      0.978204   146A      0.984853   147A      0.996368  
     148A      1.011170   149A      1.023368   150A      1.029439  
     151A      1.046624   152A      1.050860   153A      1.066504  
     154A      1.070395   155A      1.080200   156A      1.100855  
     157A      1.107409   158A      1.128100   159A      1.134162  
     160A      1.150240   161A      1.158014   162A      1.165513  
     163A      1.175168   164A      1.184214   165A      1.220539  
     166A      1.220956   167A      1.236296   168A      1.267232  
     169A      1.269573   170A      1.292965   171A      1.303390  
     172A      1.311431   173A      1.314386   174A      1.339934  
     175A      1.365804   176A      1.381080   177A      1.401041  
     178A      1.434244   179A      1.443984   180A      1.474708  
     181A      1.492501   182A      1.506282   183A      1.512021  
     184A      1.526137   185A      1.560977   186A      1.590891  
     187A      1.608680   188A      1.637436   189A      1.669501  
     190A      1.675975   191A      1.688151   192A      1.703637  
     193A      1.723958   194A      1.749258   195A      1.764370  
     196A      1.805026   197A      1.875589   198A      1.932411  
     199A      1.943562   200A      1.988139   201A      2.021454  
     202A      2.040359   203A      2.057662   204A      2.088810  
     205A      2.108395   206A      2.134123   207A      2.144710  
     208A      2.167431   209A      2.189999   210A      2.200828  
     211A      2.215935   212A      2.230454   213A      2.233154  
     214A      2.261153   215A      2.275832   216A      2.277022  
     217A      2.288563   218A      2.307637   219A      2.335015  
     220A      2.360646   221A      2.379832   222A      2.389124  
     223A      2.393716   224A      2.393895   225A      2.435199  
     226A      2.443191   227A      2.464942   228A      2.477627  
     229A      2.499211   230A      2.512905   231A      2.531786  
     232A      2.548139   233A      2.570195   234A      2.584822  
     235A      2.630635   236A      2.642959   237A      2.666821  
     238A      2.702324   239A      2.718196   240A      2.733014  
     241A      2.826806   242A      2.827210   243A      2.834708  
     244A      2.869119   245A      2.889328   246A      2.901543  
     247A      2.918563   248A      2.944441   249A      2.999195  
     250A      3.027375   251A      3.055313   252A      3.089116  
     253A      3.092443   254A      3.122711   255A      3.139332  
     256A      3.181258   257A      3.189011   258A      3.222030  
     259A      3.253423   260A      3.288455   261A      3.297914  
     262A      3.355046   263A      3.380221   264A      3.394868  
     265A      3.422791   266A      3.447574   267A      3.486453  
     268A      3.496812   269A      3.520765   270A      3.632811  
     271A      3.666232   272A      3.686295   273A      3.734905  
     274A      3.769364   275A      3.850456   276A      3.889251  
     277A      3.963700   278A      4.034781   279A      4.094044  
     280A      4.209317   281A      4.243379   282A      4.447709  
     283A      4.463034   284A      4.657675   285A      4.707330  
     286A      4.749233   287A      4.810071   288A      4.994157  
     289A      5.076092   290A      5.240754   291A      5.530524  
     292A      5.668239   293A      5.826157   294A      6.105980  
     295A      6.317634   296A      6.707674   297A      6.967161  
     298A     18.110484   299A     18.647165   300A     19.372909  
     301A     25.244815   302A     25.704241  

    Final Occupation by Irrep:
              A 
    DOCC [    18 ]

  @DF-RHF Final Energy:  -224.76243506983602

   => Energetics <=

    Nuclear Repulsion Energy =            166.6286028637914285
    One-Electron Energy =                -633.5084735556862370
    Two-Electron Energy =                 242.1174356220587640
    Total Energy =                       -224.7624350698360161

Computation Completed


Properties will be evaluated at   0.000000,   0.000000,   0.000000 [a0]

Properties computed using the SCF density matrix

  Nuclear Dipole Moment: [e a0]
     X:   441.3359      Y:  -312.0819      Z:  -933.1337

  Electronic Dipole Moment: [e a0]
     X:  -441.0450      Y:   312.6459      Z:   933.8368

  Dipole Moment: [e a0]
     X:     0.2909      Y:     0.5640      Z:     0.7031     Total:     0.9472

  Dipole Moment: [D]
     X:     0.7394      Y:     1.4336      Z:     1.7871     Total:     2.4074


*** tstop() called on ds1 at Mon Oct  4 14:10:52 2021
Module time:
	user time   =      17.46 seconds =       0.29 minutes
	system time =       0.38 seconds =       0.01 minutes
	total time  =          4 seconds =       0.07 minutes
Total time:
	user time   =      58.61 seconds =       0.98 minutes
	system time =       1.30 seconds =       0.02 minutes
	total time  =         13 seconds =       0.22 minutes
  Constructing Basis Sets for SAPT...

   => Loading Basis Set <=

    Name: (AUG-CC-PVDZ AUX)
    Role: RIFIT
    Keyword: DF_BASIS_SAPT
    atoms 1-2, 10-11 entry N          line   158 file /theoryfs2/ds/csargent/miniconda3/envs/cle/share/psi4/basis/aug-cc-pvdz-ri.gbs 
    atoms 3-6, 12-15 entry H          line    30 file /theoryfs2/ds/csargent/miniconda3/envs/cle/share/psi4/basis/aug-cc-pvdz-ri.gbs 
    atoms 7-9, 16-18 entry C          line   112 file /theoryfs2/ds/csargent/miniconda3/envs/cle/share/psi4/basis/aug-cc-pvdz-ri.gbs 


  //>>>>>>>>>>>>>>>>>>>>>>>>>>>>>>>>>>>//
  //               SAPT0               //
  //<<<<<<<<<<<<<<<<<<<<<<<<<<<<<<<<<<<//


*** tstart() called on ds1
*** at Mon Oct  4 14:10:52 2021

        SAPT0  
    Ed Hohenstein
     6 June 2009

      Orbital Information
  --------------------------
    NSO        =       302
    NMO        =       302
    NRI        =       904
    NOCC A     =        18
    NOCC B     =        18
    FOCC A     =         5
    FOCC B     =         5
    NVIR A     =       284
    NVIR B     =       284

    Elst10,r            =    -0.000044616161 [Eh]
    Exch10              =     0.000000000034 [Eh]
    Exch10 (S^2)        =     0.000000000034 [Eh]

    Iter     Energy [mEh]          dE [mEh]         Residual      Time [s]
       1      -0.00009964       0.000099641       0.093152730             0
       2      -0.00009099      -0.000008650       0.022224084             0
       3      -0.00009704       0.000006052       0.011324496             0
       4      -0.00009935       0.000002304       0.001909512             0
       5      -0.00009914      -0.000000208       0.000994471             1
       6      -0.00009906      -0.000000078       0.000351682             1
       7      -0.00009908       0.000000023       0.000190090             1
       8      -0.00009909       0.000000008       0.000067729             1
       9      -0.00009909      -0.000000002       0.000017438             1
      10      -0.00009909      -0.000000001       0.000005152             1
      11      -0.00009909       0.000000000       0.000001857             1
      12      -0.00009909       0.000000000       0.000000518             1

    CHF Iterations converged


    Iter     Energy [mEh]          dE [mEh]         Residual      Time [s]
       1      -0.00010478       0.000104775       0.102817187             1
       2      -0.00009707      -0.000007701       0.027183242             1
       3      -0.00010505       0.000007972       0.013544775             1
       4      -0.00010770       0.000002653       0.003346290             1
       5      -0.00010734      -0.000000358       0.002251562             1
       6      -0.00010715      -0.000000191       0.000726772             1
       7      -0.00010720       0.000000052       0.000305133             1
       8      -0.00010722       0.000000017       0.000096294             1
       9      -0.00010722      -0.000000001       0.000022635             2
      10      -0.00010722      -0.000000002       0.000006552             2
      11      -0.00010722       0.000000000       0.000002697             2
      12      -0.00010722       0.000000000       0.000000853             2

    CHF Iterations converged

    Ind20,r (A<-B)      =    -0.000000099089 [Eh]
    Ind20,r (B<-A)      =    -0.000000107217 [Eh]
    Ind20,r             =    -0.000000206306 [Eh]
    Exch-Ind20,r (A<-B) =     0.000000000028 [Eh]
    Exch-Ind20,r (B<-A) =     0.000000000018 [Eh]
    Exch-Ind20,r        =     0.000000000046 [Eh]
    Disp20              =    -0.000002264019 [Eh]
    Disp20 (SS)         =    -0.000001132010 [Eh]
    Disp20 (OS)         =    -0.000001132010 [Eh]
    Exch-Disp20         =     0.000000000002 [Eh]
    Exch-Disp20 (SS)    =     0.000000000001 [Eh]
    Exch-Disp20 (OS)    =     0.000000000000 [Eh]

    SAPT Results 
  --------------------------------------------------------------------------------------------------------
    Electrostatics                 -0.04461616 [mEh]      -0.02799706 [kcal/mol]      -0.11713972 [kJ/mol]
      Elst10,r                     -0.04461616 [mEh]      -0.02799706 [kcal/mol]      -0.11713972 [kJ/mol]

    Exchange                        0.00000003 [mEh]       0.00000002 [kcal/mol]       0.00000009 [kJ/mol]
      Exch10                        0.00000003 [mEh]       0.00000002 [kcal/mol]       0.00000009 [kJ/mol]
      Exch10(S^2)                   0.00000003 [mEh]       0.00000002 [kcal/mol]       0.00000009 [kJ/mol]

    Induction                      -0.00011508 [mEh]      -0.00007221 [kcal/mol]      -0.00030214 [kJ/mol]
      Ind20,r                      -0.00020631 [mEh]      -0.00012946 [kcal/mol]      -0.00054166 [kJ/mol]
      Exch-Ind20,r                  0.00000005 [mEh]       0.00000003 [kcal/mol]       0.00000012 [kJ/mol]
      delta HF,r (2)                0.00009118 [mEh]       0.00005722 [kcal/mol]       0.00023940 [kJ/mol]

    Dispersion                     -0.00226402 [mEh]      -0.00142069 [kcal/mol]      -0.00594418 [kJ/mol]
      Disp20                       -0.00226402 [mEh]      -0.00142069 [kcal/mol]      -0.00594418 [kJ/mol]
      Exch-Disp20                   0.00000000 [mEh]       0.00000000 [kcal/mol]       0.00000000 [kJ/mol]
      Disp20 (SS)                  -0.00113201 [mEh]      -0.00071035 [kcal/mol]      -0.00297209 [kJ/mol]
      Disp20 (OS)                  -0.00113201 [mEh]      -0.00071035 [kcal/mol]      -0.00297209 [kJ/mol]
      Exch-Disp20 (SS)              0.00000000 [mEh]       0.00000000 [kcal/mol]       0.00000000 [kJ/mol]
      Exch-Disp20 (OS)              0.00000000 [mEh]       0.00000000 [kcal/mol]       0.00000000 [kJ/mol]

  Total HF                         -0.04473121 [mEh]      -0.02806926 [kcal/mol]      -0.11744176 [kJ/mol]
  Total SAPT0                      -0.04699522 [mEh]      -0.02948995 [kcal/mol]      -0.12338594 [kJ/mol]

  Special recipe for scaled SAPT0 (see Manual):
    Electrostatics sSAPT0          -0.04461616 [mEh]      -0.02799706 [kcal/mol]      -0.11713972 [kJ/mol]
    Exchange sSAPT0                 0.00000003 [mEh]       0.00000002 [kcal/mol]       0.00000009 [kJ/mol]
    Induction sSAPT0               -0.00011508 [mEh]      -0.00007221 [kcal/mol]      -0.00030214 [kJ/mol]
    Dispersion sSAPT0              -0.00226402 [mEh]      -0.00142069 [kcal/mol]      -0.00594418 [kJ/mol]
  Total sSAPT0                     -0.04699522 [mEh]      -0.02948995 [kcal/mol]      -0.12338594 [kJ/mol]
  --------------------------------------------------------------------------------------------------------

*** tstop() called on ds1 at Mon Oct  4 14:11:01 2021
Module time:
	user time   =      45.55 seconds =       0.76 minutes
	system time =       4.05 seconds =       0.07 minutes
	total time  =          9 seconds =       0.15 minutes
Total time:
	user time   =     105.20 seconds =       1.75 minutes
	system time =       5.38 seconds =       0.09 minutes
	total time  =         22 seconds =       0.37 minutes


Warning! sapt0 does not have an associated derived wavefunction.The returned wavefunction is the dimer SCF wavefunction.


    Psi4 stopped on: Monday, 04 October 2021 02:11PM
    Psi4 wall time for execution: 0:00:22.53

*** Psi4 exiting successfully. Buy a developer a beer!
