
    -----------------------------------------------------------------------
          Psi4: An Open-Source Ab Initio Electronic Structure Package
                               Psi4 1.4rc3 

                         Git: Rev {HEAD} 080dba6 


    D. G. A. Smith, L. A. Burns, A. C. Simmonett, R. M. Parrish,
    M. C. Schieber, R. Galvelis, P. Kraus, H. Kruse, R. Di Remigio,
    A. Alenaizan, A. M. James, S. Lehtola, J. P. Misiewicz, M. Scheurer,
    R. A. Shaw, J. B. Schriber, Y. Xie, Z. L. Glick, D. A. Sirianni,
    J. S. O'Brien, J. M. Waldrop, A. Kumar, E. G. Hohenstein,
    B. P. Pritchard, B. R. Brooks, H. F. Schaefer III, A. Yu. Sokolov,
    K. Patkowski, A. E. DePrince III, U. Bozkaya, R. A. King,
    F. A. Evangelista, J. M. Turney, T. D. Crawford, C. D. Sherrill,
    J. Chem. Phys. 152(18) 184108 (2020). https://doi.org/10.1063/5.0006002

                            Additional Code Authors
    E. T. Seidl, C. L. Janssen, E. F. Valeev, M. L. Leininger,
    J. F. Gonthier, R. M. Richard, H. R. McAlexander, M. Saitow, X. Wang,
    P. Verma, and M. H. Lechner

             Previous Authors, Complete List of Code Contributors,
                       and Citations for Specific Modules
    https://github.com/psi4/psi4/blob/master/codemeta.json
    https://github.com/psi4/psi4/graphs/contributors
    http://psicode.org/psi4manual/master/introduction.html#citing-psifour

    -----------------------------------------------------------------------


    Psi4 started on: Monday, 04 October 2021 01:23PM

    Process ID: 7630
    Host:       ds1
    PSIDATADIR: /theoryfs2/ds/csargent/miniconda3/envs/cle/share/psi4
    Memory:     500.0 MiB
    Threads:    6
    
  ==> Input File <==

--------------------------------------------------------------------------
# PSI4 file produced by CrystaLattE

# Generated from:               pyrazole.xyz
# Psithon input for N-mer:      2mer-0+480
# Number of atoms per monomer:  [9, 9]
# Number of replicas:           1
# COM priority:                 1.733871964728e-05
# Minimum COM separations:      20.445 
# Separation priority:          2.419372115686e-05
# Minimum monomer separations:  18.296 
# Cutoff priority:              6.997403123725e-07
# Nuclear repulsion energy:     366.77212467268396

memory 7 GB

molecule Dimer_0_480 {
  N            6.27981210      -4.25303372       0.19313865 
  N            6.06870777      -2.28125697       1.80544317 
  H            3.66871156      -5.64628941      -1.96684001 
  H            0.69034521      -2.37545694      -0.42864236 
  H            3.35917442       0.17650601       3.09265017 
  H            7.35266782      -1.99461311       2.90680702 
  C            3.77952586      -1.21508453       1.76858172 
  C            2.38242998      -2.55505538       0.04607681 
  C            4.01771468      -4.38410490      -0.88761863 
--
  N           18.27499532      26.18878244      20.78653078 
  N           18.39385758      28.22668947      19.24935707 
  H           20.94815806      23.78787247      21.50456114 
  H           23.84279462      26.23041121      18.74942363 
  H           20.90637054      29.94346023      16.84478732 
  H           16.93144937      29.03666653      18.86359174 
  C           20.67669399      28.55686514      18.22030822 
  C           22.15968642      26.62719292      19.11023069 
  C           20.59838109      25.24202511      20.70192863 
units = au
no_com
no_reorient
}

set {
  e_convergence 10
  d_convergence 10
  scf_type df
  mp2_type df
  cc_type df
  freeze_core true
}

energy('sapt0/aug-cc-pvdz')

--------------------------------------------------------------------------

  Memory set to   6.519 GiB by Python driver.

Scratch directory: /scratch/csargent/psi4.7158.66302/

Scratch directory: /scratch/csargent/psi4.7158.66302/

  //>>>>>>>>>>>>>>>>>>>>>>>>>>>>>>>>>>>//
  //              Dimer HF             //
  //<<<<<<<<<<<<<<<<<<<<<<<<<<<<<<<<<<<//


*** tstart() called on ds1
*** at Mon Oct  4 13:23:30 2021

   => Loading Basis Set <=

    Name: AUG-CC-PVDZ
    Role: ORBITAL
    Keyword: BASIS
    atoms 1-2, 10-11 entry N          line   218 file /theoryfs2/ds/csargent/miniconda3/envs/cle/share/psi4/basis/aug-cc-pvdz.gbs 
    atoms 3-6, 12-15 entry H          line    40 file /theoryfs2/ds/csargent/miniconda3/envs/cle/share/psi4/basis/aug-cc-pvdz.gbs 
    atoms 7-9, 16-18 entry C          line   182 file /theoryfs2/ds/csargent/miniconda3/envs/cle/share/psi4/basis/aug-cc-pvdz.gbs 


         ---------------------------------------------------------
                                   SCF
               by Justin Turney, Rob Parrish, Andy Simmonett
                          and Daniel G. A. Smith
                              RHF Reference
                        6 Threads,   6675 MiB Core
         ---------------------------------------------------------

  ==> Geometry <==

    Molecular point group: c1
    Full point group: C1

    Geometry (in Bohr), charge = 0, multiplicity = 1:

       Center              X                  Y                   Z               Mass       
    ------------   -----------------  -----------------  -----------------  -----------------
         N            6.279812100000    -4.253033720000     0.193138650000    14.003074004430
         N            6.068707770000    -2.281256970000     1.805443170000    14.003074004430
         H            3.668711560000    -5.646289410000    -1.966840010000     1.007825032230
         H            0.690345210000    -2.375456940000    -0.428642360000     1.007825032230
         H            3.359174420000     0.176506010000     3.092650170000     1.007825032230
         H            7.352667820000    -1.994613110000     2.906807020000     1.007825032230
         C            3.779525860000    -1.215084530000     1.768581720000    12.000000000000
         C            2.382429980000    -2.555055380000     0.046076810000    12.000000000000
         C            4.017714680000    -4.384104900000    -0.887618630000    12.000000000000
         N           18.274995320000    26.188782440000    20.786530780000    14.003074004430
         N           18.393857580000    28.226689470000    19.249357070000    14.003074004430
         H           20.948158060000    23.787872470000    21.504561140000     1.007825032230
         H           23.842794620000    26.230411210000    18.749423630000     1.007825032230
         H           20.906370540000    29.943460230000    16.844787320000     1.007825032230
         H           16.931449370000    29.036666530000    18.863591740000     1.007825032230
         C           20.676693990000    28.556865140000    18.220308220000    12.000000000000
         C           22.159686420000    26.627192920000    19.110230690000    12.000000000000
         C           20.598381090000    25.242025110000    20.701928630000    12.000000000000

  Running in c1 symmetry.

  Rotational constants: A =      0.02378  B =      0.00058  C =      0.00057 [cm^-1]
  Rotational constants: A =    712.87982  B =     17.48092  C =     17.11968 [MHz]
  Nuclear repulsion =  366.772124677193290

  Charge       = 0
  Multiplicity = 1
  Electrons    = 72
  Nalpha       = 36
  Nbeta        = 36

  ==> Algorithm <==

  SCF Algorithm Type is DF.
  DIIS enabled.
  MOM disabled.
  Fractional occupation disabled.
  Guess Type is SAD.
  Energy threshold   = 1.00e-10
  Density threshold  = 1.00e-10
  Integral threshold = 1.00e-12

  ==> Primary Basis <==

  Basis Set: AUG-CC-PVDZ
    Blend: AUG-CC-PVDZ
    Number of shells: 130
    Number of basis functions: 302
    Number of Cartesian functions: 322
    Spherical Harmonics?: true
    Max angular momentum: 2

   => Loading Basis Set <=

    Name: (AUG-CC-PVDZ AUX)
    Role: JKFIT
    Keyword: DF_BASIS_SCF
    atoms 1-2, 10-11 entry N          line   212 file /theoryfs2/ds/csargent/miniconda3/envs/cle/share/psi4/basis/aug-cc-pvdz-jkfit.gbs 
    atoms 3-6, 12-15 entry H          line    70 file /theoryfs2/ds/csargent/miniconda3/envs/cle/share/psi4/basis/aug-cc-pvdz-jkfit.gbs 
    atoms 7-9, 16-18 entry C          line   154 file /theoryfs2/ds/csargent/miniconda3/envs/cle/share/psi4/basis/aug-cc-pvdz-jkfit.gbs 

  ==> Integral Setup <==

  ==> DiskDFJK: Density-Fitted J/K Matrices <==

    J tasked:                  Yes
    K tasked:                  Yes
    wK tasked:                  No
    OpenMP threads:              6
    Integrals threads:           6
    Memory [MiB]:             5006
    Algorithm:                Core
    Integral Cache:           SAVE
    Schwarz Cutoff:          1E-12
    Fitting Condition:       1E-10

   => Auxiliary Basis Set <=

  Basis Set: (AUG-CC-PVDZ AUX)
    Blend: AUG-CC-PVDZ-JKFIT
    Number of shells: 376
    Number of basis functions: 1116
    Number of Cartesian functions: 1290
    Spherical Harmonics?: true
    Max angular momentum: 3

  Minimum eigenvalue in the overlap matrix is 3.0324468983E-05.
  Reciprocal condition number of the overlap matrix is 2.4867199122E-06.
    Using symmetric orthogonalization.

  ==> Pre-Iterations <==

  SCF Guess: Superposition of Atomic Densities via on-the-fly atomic UHF (no occupation information).

   -------------------------
    Irrep   Nso     Nmo    
   -------------------------
     A        302     302 
   -------------------------
    Total     302     302
   -------------------------

  ==> Iterations <==

                           Total Energy        Delta E     RMS |[F,P]|

   @DF-RHF iter SAD:  -449.44445656194591   -4.49444e+02   0.00000e+00 
   @DF-RHF iter   1:  -449.27110444106643    1.73352e-01   2.12800e-03 DIIS
   @DF-RHF iter   2:  -449.47982118897676   -2.08717e-01   9.73484e-04 DIIS
   @DF-RHF iter   3:  -449.52162594597041   -4.18048e-02   2.10086e-04 DIIS
   @DF-RHF iter   4:  -449.52439323807573   -2.76729e-03   8.55207e-05 DIIS
   @DF-RHF iter   5:  -449.52474927603356   -3.56038e-04   1.69537e-05 DIIS
   @DF-RHF iter   6:  -449.52478316486702   -3.38888e-05   7.02166e-06 DIIS
   @DF-RHF iter   7:  -449.52479106989176   -7.90502e-06   3.09144e-06 DIIS
   @DF-RHF iter   8:  -449.52479258901116   -1.51912e-06   1.43749e-06 DIIS
   @DF-RHF iter   9:  -449.52479292391024   -3.34899e-07   4.00137e-07 DIIS
   @DF-RHF iter  10:  -449.52479294150714   -1.75969e-08   1.20944e-07 DIIS
   @DF-RHF iter  11:  -449.52479294288474   -1.37760e-09   2.82187e-08 DIIS
   @DF-RHF iter  12:  -449.52479294297694   -9.22000e-11   8.20373e-09 DIIS
   @DF-RHF iter  13:  -449.52479294298502   -8.07177e-12   3.99574e-09 DIIS
   @DF-RHF iter  14:  -449.52479294298627   -1.25056e-12   1.37653e-09 DIIS
   @DF-RHF iter  15:  -449.52479294298735   -1.08002e-12   5.87062e-10 DIIS
   @DF-RHF iter  16:  -449.52479294298712    2.27374e-13   1.78928e-10 DIIS
   @DF-RHF iter  17:  -449.52479294298763   -5.11591e-13   6.42214e-11 DIIS
  Energy and wave function converged.


  ==> Post-Iterations <==

    Orbital Energies [Eh]
    ---------------------

    Doubly Occupied:                                                      

       1A    -15.636740     2A    -15.636007     3A    -15.592805  
       4A    -15.592108     5A    -11.280398     6A    -11.279677  
       7A    -11.238274     8A    -11.237584     9A    -11.210376  
      10A    -11.209683    11A     -1.387511    12A     -1.386709  
      13A     -1.122405    14A     -1.121691    15A     -1.067427  
      16A     -1.066688    17A     -0.873266    18A     -0.872558  
      19A     -0.837543    20A     -0.836854    21A     -0.757766  
      22A     -0.757075    23A     -0.646251    24A     -0.645538  
      25A     -0.621328    26A     -0.620627    27A     -0.609686  
      28A     -0.608927    29A     -0.584403    30A     -0.583707  
      31A     -0.461934    32A     -0.461200    33A     -0.371226  
      34A     -0.370515    35A     -0.346556    36A     -0.345838  

    Virtual:                                                              

      37A      0.030319    38A      0.031070    39A      0.041917  
      40A      0.042550    41A      0.048649    42A      0.049383  
      43A      0.063040    44A      0.063742    45A      0.100512  
      46A      0.101241    47A      0.103525    48A      0.104236  
      49A      0.116660    50A      0.117352    51A      0.125774  
      52A      0.126474    53A      0.132596    54A      0.133320  
      55A      0.137942    56A      0.138582    57A      0.141027  
      58A      0.141703    59A      0.156447    60A      0.157093  
      61A      0.164131    62A      0.164790    63A      0.170571  
      64A      0.171290    65A      0.177902    66A      0.178614  
      67A      0.195537    68A      0.196289    69A      0.204277  
      70A      0.205010    71A      0.205632    72A      0.206378  
      73A      0.239722    74A      0.240429    75A      0.243123  
      76A      0.243837    77A      0.244438    78A      0.245160  
      79A      0.270601    80A      0.271324    81A      0.278599  
      82A      0.279324    83A      0.300471    84A      0.301184  
      85A      0.324644    86A      0.325365    87A      0.351866  
      88A      0.352586    89A      0.354868    90A      0.355556  
      91A      0.374420    92A      0.375129    93A      0.395586  
      94A      0.396294    95A      0.402253    96A      0.402962  
      97A      0.414545    98A      0.415194    99A      0.431629  
     100A      0.432352   101A      0.442847   102A      0.443583  
     103A      0.452899   104A      0.453602   105A      0.459311  
     106A      0.460028   107A      0.478159   108A      0.478880  
     109A      0.498038   110A      0.498750   111A      0.508183  
     112A      0.508897   113A      0.521472   114A      0.522142  
     115A      0.541070   116A      0.541766   117A      0.573929  
     118A      0.574656   119A      0.585823   120A      0.586532  
     121A      0.590058   122A      0.590754   123A      0.601942  
     124A      0.602630   125A      0.620480   126A      0.621161  
     127A      0.645618   128A      0.646320   129A      0.654827  
     130A      0.655506   131A      0.675669   132A      0.676370  
     133A      0.697542   134A      0.698249   135A      0.699886  
     136A      0.700603   137A      0.721148   138A      0.721882  
     139A      0.724633   140A      0.725332   141A      0.747214  
     142A      0.747920   143A      0.758145   144A      0.758797  
     145A      0.772794   146A      0.773520   147A      0.780966  
     148A      0.781694   149A      0.827993   150A      0.828706  
     151A      0.837740   152A      0.838448   153A      0.847889  
     154A      0.848606   155A      0.880906   156A      0.881598  
     157A      0.888274   158A      0.888983   159A      0.906446  
     160A      0.907156   161A      0.924298   162A      0.925029  
     163A      0.942093   164A      0.942787   165A      0.977693  
     166A      0.978423   167A      0.984350   168A      0.985058  
     169A      1.010641   170A      1.011347   171A      1.046103  
     172A      1.046818   173A      1.066011   174A      1.066714  
     175A      1.100348   176A      1.101072   177A      1.127595  
     178A      1.128261   179A      1.133647   180A      1.134408  
     181A      1.149741   182A      1.150446   183A      1.174666  
     184A      1.175373   185A      1.220024   186A      1.220755  
     187A      1.269072   188A      1.269764   189A      1.302876  
     190A      1.303549   191A      1.310916   192A      1.311611  
     193A      1.365290   194A      1.366013   195A      1.400543  
     196A      1.401249   197A      1.474192   198A      1.474902  
     199A      1.511511   200A      1.512241   201A      1.525637  
     202A      1.526337   203A      1.560474   204A      1.561195  
     205A      1.590400   206A      1.591097   207A      1.608180  
     208A      1.608876   209A      1.636940   210A      1.637643  
     211A      1.669000   212A      1.669680   213A      1.703134  
     214A      1.703849   215A      1.723449   216A      1.724159  
     217A      1.748741   218A      1.749419   219A      1.763867  
     220A      1.764584   221A      1.804517   222A      1.805256  
     223A      1.875096   224A      1.875850   225A      1.931901  
     226A      1.932600   227A      1.943071   228A      1.943765  
     229A      1.987634   230A      1.988269   231A      2.020946  
     232A      2.021654   233A      2.057161   234A      2.057821  
     235A      2.088313   236A      2.089055   237A      2.144203  
     238A      2.144897   239A      2.189505   240A      2.190218  
     241A      2.200327   242A      2.201032   243A      2.229949  
     244A      2.230670   245A      2.275330   246A      2.276027  
     247A      2.307136   248A      2.307854   249A      2.360142  
     250A      2.360923   251A      2.388615   252A      2.389341  
     253A      2.393251   254A      2.394048   255A      2.434686  
     256A      2.435459   257A      2.464431   258A      2.465188  
     259A      2.531280   260A      2.532006   261A      2.569687  
     262A      2.570441   263A      2.584312   264A      2.584936  
     265A      2.642455   266A      2.643176   267A      2.732516  
     268A      2.733249   269A      2.826297   270A      2.827044  
     271A      2.834200   272A      2.834958   273A      2.901031  
     274A      2.901800   275A      2.918057   276A      2.918815  
     277A      2.998694   278A      2.999368   279A      3.054806  
     280A      3.055538   281A      3.091926   282A      3.092567  
     283A      3.122199   284A      3.122942   285A      3.188501  
     286A      3.189133   287A      3.221529   288A      3.222216  
     289A      3.297400   290A      3.298071   291A      3.379728  
     292A      3.380449   293A      3.520254   294A      3.520939  
     295A      3.685793   296A      3.686771   297A      3.888738  
     298A      3.889541   299A      4.208797   300A      4.209635  
     301A      4.462535   302A      4.463443  

    Final Occupation by Irrep:
              A 
    DOCC [    36 ]

  @DF-RHF Final Energy:  -449.52479294298763

   => Energetics <=

    Nuclear Repulsion Energy =            366.7721246771932897
    One-Electron Energy =               -1334.0360713193517768
    Two-Electron Energy =                 517.7391536991708563
    Total Energy =                       -449.5247929429876876

Computation Completed


Properties will be evaluated at   0.000000,   0.000000,   0.000000 [a0]

Properties computed using the SCF density matrix

  Nuclear Dipole Moment: [e a0]
     X:   882.5079      Y:   867.9579      Z:   727.5647

  Electronic Dipole Moment: [e a0]
     X:  -882.6186      Y:  -866.7610      Z:  -727.6873

  Dipole Moment: [e a0]
     X:    -0.1108      Y:     1.1968      Z:    -0.1227     Total:     1.2082

  Dipole Moment: [D]
     X:    -0.2815      Y:     3.0421      Z:    -0.3118     Total:     3.0709


*** tstop() called on ds1 at Mon Oct  4 13:23:35 2021
Module time:
	user time   =      22.00 seconds =       0.37 minutes
	system time =       0.57 seconds =       0.01 minutes
	total time  =          5 seconds =       0.08 minutes
Total time:
	user time   =      22.00 seconds =       0.37 minutes
	system time =       0.57 seconds =       0.01 minutes
	total time  =          5 seconds =       0.08 minutes

  //>>>>>>>>>>>>>>>>>>>>>>>>>>>>>>>>>>>//
  //            Monomer A HF           //
  //<<<<<<<<<<<<<<<<<<<<<<<<<<<<<<<<<<<//


*** tstart() called on ds1
*** at Mon Oct  4 13:23:35 2021

   => Loading Basis Set <=

    Name: AUG-CC-PVDZ
    Role: ORBITAL
    Keyword: BASIS
    atoms 1-2, 10-11 entry N          line   218 file /theoryfs2/ds/csargent/miniconda3/envs/cle/share/psi4/basis/aug-cc-pvdz.gbs 
    atoms 3-6, 12-15 entry H          line    40 file /theoryfs2/ds/csargent/miniconda3/envs/cle/share/psi4/basis/aug-cc-pvdz.gbs 
    atoms 7-9, 16-18 entry C          line   182 file /theoryfs2/ds/csargent/miniconda3/envs/cle/share/psi4/basis/aug-cc-pvdz.gbs 


         ---------------------------------------------------------
                                   SCF
               by Justin Turney, Rob Parrish, Andy Simmonett
                          and Daniel G. A. Smith
                              RHF Reference
                        6 Threads,   6675 MiB Core
         ---------------------------------------------------------

  ==> Geometry <==

    Molecular point group: c1
    Full point group: C1

    Geometry (in Bohr), charge = 0, multiplicity = 1:

       Center              X                  Y                   Z               Mass       
    ------------   -----------------  -----------------  -----------------  -----------------
         N            6.279812100000    -4.253033720000     0.193138650000    14.003074004430
         N            6.068707770000    -2.281256970000     1.805443170000    14.003074004430
         H            3.668711560000    -5.646289410000    -1.966840010000     1.007825032230
         H            0.690345210000    -2.375456940000    -0.428642360000     1.007825032230
         H            3.359174420000     0.176506010000     3.092650170000     1.007825032230
         H            7.352667820000    -1.994613110000     2.906807020000     1.007825032230
         C            3.779525860000    -1.215084530000     1.768581720000    12.000000000000
         C            2.382429980000    -2.555055380000     0.046076810000    12.000000000000
         C            4.017714680000    -4.384104900000    -0.887618630000    12.000000000000
      Gh(N)          18.274995320000    26.188782440000    20.786530780000    14.003074004430
      Gh(N)          18.393857580000    28.226689470000    19.249357070000    14.003074004430
      Gh(H)          20.948158060000    23.787872470000    21.504561140000     1.007825032230
      Gh(H)          23.842794620000    26.230411210000    18.749423630000     1.007825032230
      Gh(H)          20.906370540000    29.943460230000    16.844787320000     1.007825032230
      Gh(H)          16.931449370000    29.036666530000    18.863591740000     1.007825032230
      Gh(C)          20.676693990000    28.556865140000    18.220308220000    12.000000000000
      Gh(C)          22.159686420000    26.627192920000    19.110230690000    12.000000000000
      Gh(C)          20.598381090000    25.242025110000    20.701928630000    12.000000000000

  Running in c1 symmetry.

  Rotational constants: A =      0.02378  B =      0.00058  C =      0.00057 [cm^-1]
  Rotational constants: A =    712.87982  B =     17.48092  C =     17.11968 [MHz]
  Nuclear repulsion =  166.624056450327203

  Charge       = 0
  Multiplicity = 1
  Electrons    = 36
  Nalpha       = 18
  Nbeta        = 18

  ==> Algorithm <==

  SCF Algorithm Type is DF.
  DIIS enabled.
  MOM disabled.
  Fractional occupation disabled.
  Guess Type is SAD.
  Energy threshold   = 1.00e-10
  Density threshold  = 1.00e-10
  Integral threshold = 1.00e-12

  ==> Primary Basis <==

  Basis Set: AUG-CC-PVDZ
    Blend: AUG-CC-PVDZ
    Number of shells: 130
    Number of basis functions: 302
    Number of Cartesian functions: 322
    Spherical Harmonics?: true
    Max angular momentum: 2

   => Loading Basis Set <=

    Name: (AUG-CC-PVDZ AUX)
    Role: JKFIT
    Keyword: DF_BASIS_SCF
    atoms 1-2, 10-11 entry N          line   212 file /theoryfs2/ds/csargent/miniconda3/envs/cle/share/psi4/basis/aug-cc-pvdz-jkfit.gbs 
    atoms 3-6, 12-15 entry H          line    70 file /theoryfs2/ds/csargent/miniconda3/envs/cle/share/psi4/basis/aug-cc-pvdz-jkfit.gbs 
    atoms 7-9, 16-18 entry C          line   154 file /theoryfs2/ds/csargent/miniconda3/envs/cle/share/psi4/basis/aug-cc-pvdz-jkfit.gbs 

  ==> Integral Setup <==

  ==> DiskDFJK: Density-Fitted J/K Matrices <==

    J tasked:                  Yes
    K tasked:                  Yes
    wK tasked:                  No
    OpenMP threads:              6
    Integrals threads:           6
    Memory [MiB]:             5006
    Algorithm:                Core
    Integral Cache:           LOAD
    Schwarz Cutoff:          1E-12
    Fitting Condition:       1E-10

   => Auxiliary Basis Set <=

  Basis Set: (AUG-CC-PVDZ AUX)
    Blend: AUG-CC-PVDZ-JKFIT
    Number of shells: 376
    Number of basis functions: 1116
    Number of Cartesian functions: 1290
    Spherical Harmonics?: true
    Max angular momentum: 3

  Minimum eigenvalue in the overlap matrix is 3.0324468983E-05.
  Reciprocal condition number of the overlap matrix is 2.4867199122E-06.
    Using symmetric orthogonalization.

  ==> Pre-Iterations <==

  SCF Guess: Superposition of Atomic Densities via on-the-fly atomic UHF (no occupation information).

   -------------------------
    Irrep   Nso     Nmo    
   -------------------------
     A        302     302 
   -------------------------
    Total     302     302
   -------------------------

  ==> Iterations <==

                           Total Energy        Delta E     RMS |[F,P]|

   @DF-RHF iter SAD:  -224.72194801258394   -2.24722e+02   0.00000e+00 
   @DF-RHF iter   1:  -224.63549170009441    8.64563e-02   1.50472e-03 DIIS
   @DF-RHF iter   2:  -224.73984613273490   -1.04354e-01   6.88462e-04 DIIS
   @DF-RHF iter   3:  -224.76075487162447   -2.09087e-02   1.48626e-04 DIIS
   @DF-RHF iter   4:  -224.76213931540457   -1.38444e-03   6.05310e-05 DIIS
   @DF-RHF iter   5:  -224.76231767016444   -1.78355e-04   1.19893e-05 DIIS
   @DF-RHF iter   6:  -224.76233462763830   -1.69575e-05   4.96772e-06 DIIS
   @DF-RHF iter   7:  -224.76233858367618   -3.95604e-06   2.18806e-06 DIIS
   @DF-RHF iter   8:  -224.76233934441862   -7.60742e-07   1.01700e-06 DIIS
   @DF-RHF iter   9:  -224.76233951206041   -1.67642e-07   2.83302e-07 DIIS
   @DF-RHF iter  10:  -224.76233952088117   -8.82076e-09   8.55547e-08 DIIS
   @DF-RHF iter  11:  -224.76233952157122   -6.90051e-10   1.99714e-08 DIIS
   @DF-RHF iter  12:  -224.76233952161652   -4.53042e-11   5.81092e-09 DIIS
   @DF-RHF iter  13:  -224.76233952162136   -4.83169e-12   2.83097e-09 DIIS
   @DF-RHF iter  14:  -224.76233952162198   -6.25278e-13   9.75191e-10 DIIS
   @DF-RHF iter  15:  -224.76233952162198    0.00000e+00   4.15548e-10 DIIS
   @DF-RHF iter  16:  -224.76233952162218   -1.98952e-13   1.25997e-10 DIIS
   @DF-RHF iter  17:  -224.76233952162212    5.68434e-14   4.47776e-11 DIIS
  Energy and wave function converged.


  ==> Post-Iterations <==

    Orbital Energies [Eh]
    ---------------------

    Doubly Occupied:                                                      

       1A    -15.636223     2A    -15.592313     3A    -11.279894  
       4A    -11.237784     5A    -11.209891     6A     -1.386922  
       7A     -1.121901     8A     -1.066898     9A     -0.872768  
      10A     -0.837061    11A     -0.757292    12A     -0.645746  
      13A     -0.620834    14A     -0.609140    15A     -0.583920  
      16A     -0.461404    17A     -0.370721    18A     -0.346048  

    Virtual:                                                              

      19A      0.022215    20A      0.030764    21A      0.039563  
      22A      0.042368    23A      0.043698    24A      0.049159  
      25A      0.063520    26A      0.065439    27A      0.083502  
      28A      0.090263    29A      0.098489    30A      0.100998  
      31A      0.104029    32A      0.117179    33A      0.117895  
      34A      0.125380    35A      0.126270    36A      0.127834  
      37A      0.132912    38A      0.133069    39A      0.133679  
      40A      0.138403    41A      0.141490    42A      0.156889  
      43A      0.158106    44A      0.164592    45A      0.165514  
      46A      0.171075    47A      0.178408    48A      0.178749  
      49A      0.194997    50A      0.196042    51A      0.201010  
      52A      0.204793    53A      0.206162    54A      0.222434  
      55A      0.224690    56A      0.227781    57A      0.235098  
      58A      0.240236    59A      0.243626    60A      0.244965  
      61A      0.263580    62A      0.270562    63A      0.271127  
      64A      0.279080    65A      0.301010    66A      0.321444  
      67A      0.325148    68A      0.339647    69A      0.352358  
      70A      0.355357    71A      0.366094    72A      0.372449  
      73A      0.374907    74A      0.383273    75A      0.396061  
      76A      0.402741    77A      0.414998    78A      0.427031  
      79A      0.431619    80A      0.432132    81A      0.440757  
      82A      0.441913    83A      0.443385    84A      0.453393  
      85A      0.455547    86A      0.456979    87A      0.459816  
      88A      0.461422    89A      0.478655    90A      0.498543  
      91A      0.508690    92A      0.509284    93A      0.518973  
      94A      0.521917    95A      0.532673    96A      0.537601  
      97A      0.541560    98A      0.558882    99A      0.568374  
     100A      0.571413   101A      0.574432   102A      0.586318  
     103A      0.590538   104A      0.594720   105A      0.602413  
     106A      0.612939   107A      0.620800   108A      0.620953  
     109A      0.633086   110A      0.646110   111A      0.655295  
     112A      0.676162   113A      0.690390   114A      0.698041  
     115A      0.700391   116A      0.707357   117A      0.719018  
     118A      0.721667   119A      0.725115   120A      0.735244  
     121A      0.744922   122A      0.747709   123A      0.758592  
     124A      0.773318   125A      0.781481   126A      0.789236  
     127A      0.797683   128A      0.814018   129A      0.820482  
     130A      0.828504   131A      0.838230   132A      0.848394  
     133A      0.851532   134A      0.854687   135A      0.870585  
     136A      0.880650   137A      0.881395   138A      0.888767  
     139A      0.895243   140A      0.906950   141A      0.915737  
     142A      0.924815   143A      0.942582   144A      0.951667  
     145A      0.978222   146A      0.984850   147A      0.996762  
     148A      1.011149   149A      1.023761   150A      1.029813  
     151A      1.046606   152A      1.051240   153A      1.066503  
     154A      1.070755   155A      1.080599   156A      1.100852  
     157A      1.107795   158A      1.128058   159A      1.134196  
     160A      1.150235   161A      1.158408   162A      1.165913  
     163A      1.175168   164A      1.184611   165A      1.220548  
     166A      1.221354   167A      1.236692   168A      1.267604  
     169A      1.269556   170A      1.293361   171A      1.303342  
     172A      1.311399   173A      1.314796   174A      1.340320  
     175A      1.365807   176A      1.381485   177A      1.401043  
     178A      1.434644   179A      1.444392   180A      1.474691  
     181A      1.492867   182A      1.506711   183A      1.512027  
     184A      1.526129   185A      1.560989   186A      1.590882  
     187A      1.608669   188A      1.637437   189A      1.669472  
     190A      1.676369   191A      1.688531   192A      1.703634  
     193A      1.723950   194A      1.749215   195A      1.764373  
     196A      1.805048   197A      1.875632   198A      1.932390  
     199A      1.943558   200A      1.988067   201A      2.021445  
     202A      2.040753   203A      2.057611   204A      2.088839  
     205A      2.108772   206A      2.134465   207A      2.144687  
     208A      2.167814   209A      2.190005   210A      2.200827  
     211A      2.216300   212A      2.230457   213A      2.233546  
     214A      2.261547   215A      2.275825   216A      2.277390  
     217A      2.288944   218A      2.307640   219A      2.335325  
     220A      2.360716   221A      2.380255   222A      2.389130  
     223A      2.393822   224A      2.394226   225A      2.435246  
     226A      2.443558   227A      2.464967   228A      2.477979  
     229A      2.499633   230A      2.513325   231A      2.531798  
     232A      2.548521   233A      2.570232   234A      2.584716  
     235A      2.631006   236A      2.642961   237A      2.667214  
     238A      2.702711   239A      2.718570   240A      2.733029  
     241A      2.826838   242A      2.827621   243A      2.834751  
     244A      2.869504   245A      2.889714   246A      2.901587  
     247A      2.918598   248A      2.944764   249A      2.999157  
     250A      3.027664   251A      3.055324   252A      3.089434  
     253A      3.092358   254A      3.122730   255A      3.139726  
     256A      3.181556   257A      3.188930   258A      3.222008  
     259A      3.253830   260A      3.288784   261A      3.297865  
     262A      3.355338   263A      3.380235   264A      3.395297  
     265A      3.423089   266A      3.447884   267A      3.486891  
     268A      3.497245   269A      3.520727   270A      3.633273  
     271A      3.666642   272A      3.686563   273A      3.735313  
     274A      3.769801   275A      3.850824   276A      3.889327  
     277A      3.964238   278A      4.035307   279A      4.094449  
     280A      4.209428   281A      4.243764   282A      4.447930  
     283A      4.463235   284A      4.658140   285A      4.707843  
     286A      4.749642   287A      4.810524   288A      4.994542  
     289A      5.076399   290A      5.240938   291A      5.531159  
     292A      5.668713   293A      5.826353   294A      6.106712  
     295A      6.317896   296A      6.707267   297A      6.967186  
     298A     18.110876   299A     18.647756   300A     19.373405  
     301A     25.245105   302A     25.705012  

    Final Occupation by Irrep:
              A 
    DOCC [    18 ]

  @DF-RHF Final Energy:  -224.76233952162212

   => Energetics <=

    Nuclear Repulsion Energy =            166.6240564503272026
    One-Electron Energy =                -633.4992733866115486
    Two-Electron Energy =                 242.1128774146622220
    Total Energy =                       -224.7623395216221240

Computation Completed


Properties will be evaluated at   0.000000,   0.000000,   0.000000 [a0]

Properties computed using the SCF density matrix

  Nuclear Dipole Moment: [e a0]
     X:   162.5886      Y:  -104.5054      Z:    23.1563

  Electronic Dipole Moment: [e a0]
     X:  -162.9913      Y:   105.1370      Z:   -22.5767

  Dipole Moment: [e a0]
     X:    -0.4027      Y:     0.6317      Z:     0.5796     Total:     0.9472

  Dipole Moment: [D]
     X:    -1.0235      Y:     1.6055      Z:     1.4733     Total:     2.4075


*** tstop() called on ds1 at Mon Oct  4 13:23:38 2021
Module time:
	user time   =      15.71 seconds =       0.26 minutes
	system time =       0.33 seconds =       0.01 minutes
	total time  =          3 seconds =       0.05 minutes
Total time:
	user time   =      37.86 seconds =       0.63 minutes
	system time =       0.91 seconds =       0.02 minutes
	total time  =          8 seconds =       0.13 minutes

  //>>>>>>>>>>>>>>>>>>>>>>>>>>>>>>>>>>>//
  //            Monomer B HF           //
  //<<<<<<<<<<<<<<<<<<<<<<<<<<<<<<<<<<<//


*** tstart() called on ds1
*** at Mon Oct  4 13:23:38 2021

   => Loading Basis Set <=

    Name: AUG-CC-PVDZ
    Role: ORBITAL
    Keyword: BASIS
    atoms 1-2, 10-11 entry N          line   218 file /theoryfs2/ds/csargent/miniconda3/envs/cle/share/psi4/basis/aug-cc-pvdz.gbs 
    atoms 3-6, 12-15 entry H          line    40 file /theoryfs2/ds/csargent/miniconda3/envs/cle/share/psi4/basis/aug-cc-pvdz.gbs 
    atoms 7-9, 16-18 entry C          line   182 file /theoryfs2/ds/csargent/miniconda3/envs/cle/share/psi4/basis/aug-cc-pvdz.gbs 


         ---------------------------------------------------------
                                   SCF
               by Justin Turney, Rob Parrish, Andy Simmonett
                          and Daniel G. A. Smith
                              RHF Reference
                        6 Threads,   6675 MiB Core
         ---------------------------------------------------------

  ==> Geometry <==

    Molecular point group: c1
    Full point group: C1

    Geometry (in Bohr), charge = 0, multiplicity = 1:

       Center              X                  Y                   Z               Mass       
    ------------   -----------------  -----------------  -----------------  -----------------
      Gh(N)           6.279812100000    -4.253033720000     0.193138650000    14.003074004430
      Gh(N)           6.068707770000    -2.281256970000     1.805443170000    14.003074004430
      Gh(H)           3.668711560000    -5.646289410000    -1.966840010000     1.007825032230
      Gh(H)           0.690345210000    -2.375456940000    -0.428642360000     1.007825032230
      Gh(H)           3.359174420000     0.176506010000     3.092650170000     1.007825032230
      Gh(H)           7.352667820000    -1.994613110000     2.906807020000     1.007825032230
      Gh(C)           3.779525860000    -1.215084530000     1.768581720000    12.000000000000
      Gh(C)           2.382429980000    -2.555055380000     0.046076810000    12.000000000000
      Gh(C)           4.017714680000    -4.384104900000    -0.887618630000    12.000000000000
         N           18.274995320000    26.188782440000    20.786530780000    14.003074004430
         N           18.393857580000    28.226689470000    19.249357070000    14.003074004430
         H           20.948158060000    23.787872470000    21.504561140000     1.007825032230
         H           23.842794620000    26.230411210000    18.749423630000     1.007825032230
         H           20.906370540000    29.943460230000    16.844787320000     1.007825032230
         H           16.931449370000    29.036666530000    18.863591740000     1.007825032230
         C           20.676693990000    28.556865140000    18.220308220000    12.000000000000
         C           22.159686420000    26.627192920000    19.110230690000    12.000000000000
         C           20.598381090000    25.242025110000    20.701928630000    12.000000000000

  Running in c1 symmetry.

  Rotational constants: A =      0.02378  B =      0.00058  C =      0.00057 [cm^-1]
  Rotational constants: A =    712.87982  B =     17.48092  C =     17.11968 [MHz]
  Nuclear repulsion =  166.628602818667105

  Charge       = 0
  Multiplicity = 1
  Electrons    = 36
  Nalpha       = 18
  Nbeta        = 18

  ==> Algorithm <==

  SCF Algorithm Type is DF.
  DIIS enabled.
  MOM disabled.
  Fractional occupation disabled.
  Guess Type is SAD.
  Energy threshold   = 1.00e-10
  Density threshold  = 1.00e-10
  Integral threshold = 1.00e-12

  ==> Primary Basis <==

  Basis Set: AUG-CC-PVDZ
    Blend: AUG-CC-PVDZ
    Number of shells: 130
    Number of basis functions: 302
    Number of Cartesian functions: 322
    Spherical Harmonics?: true
    Max angular momentum: 2

   => Loading Basis Set <=

    Name: (AUG-CC-PVDZ AUX)
    Role: JKFIT
    Keyword: DF_BASIS_SCF
    atoms 1-2, 10-11 entry N          line   212 file /theoryfs2/ds/csargent/miniconda3/envs/cle/share/psi4/basis/aug-cc-pvdz-jkfit.gbs 
    atoms 3-6, 12-15 entry H          line    70 file /theoryfs2/ds/csargent/miniconda3/envs/cle/share/psi4/basis/aug-cc-pvdz-jkfit.gbs 
    atoms 7-9, 16-18 entry C          line   154 file /theoryfs2/ds/csargent/miniconda3/envs/cle/share/psi4/basis/aug-cc-pvdz-jkfit.gbs 

  ==> Integral Setup <==

  ==> DiskDFJK: Density-Fitted J/K Matrices <==

    J tasked:                  Yes
    K tasked:                  Yes
    wK tasked:                  No
    OpenMP threads:              6
    Integrals threads:           6
    Memory [MiB]:             5006
    Algorithm:                Core
    Integral Cache:           LOAD
    Schwarz Cutoff:          1E-12
    Fitting Condition:       1E-10

   => Auxiliary Basis Set <=

  Basis Set: (AUG-CC-PVDZ AUX)
    Blend: AUG-CC-PVDZ-JKFIT
    Number of shells: 376
    Number of basis functions: 1116
    Number of Cartesian functions: 1290
    Spherical Harmonics?: true
    Max angular momentum: 3

  Minimum eigenvalue in the overlap matrix is 3.0324468983E-05.
  Reciprocal condition number of the overlap matrix is 2.4867199122E-06.
    Using symmetric orthogonalization.

  ==> Pre-Iterations <==

  SCF Guess: Superposition of Atomic Densities via on-the-fly atomic UHF (no occupation information).

   -------------------------
    Irrep   Nso     Nmo    
   -------------------------
     A        302     302 
   -------------------------
    Total     302     302
   -------------------------

  ==> Iterations <==

                           Total Energy        Delta E     RMS |[F,P]|

   @DF-RHF iter SAD:  -224.72250854901634   -2.24723e+02   0.00000e+00 
   @DF-RHF iter   1:  -224.63556596039436    8.69426e-02   1.50490e-03 DIIS
   @DF-RHF iter   2:  -224.73993304818347   -1.04367e-01   6.88620e-04 DIIS
   @DF-RHF iter   3:  -224.76085080188440   -2.09178e-02   1.48614e-04 DIIS
   @DF-RHF iter   4:  -224.76223500054368   -1.38420e-03   6.05151e-05 DIIS
   @DF-RHF iter   5:  -224.76241324504562   -1.78245e-04   1.19848e-05 DIIS
   @DF-RHF iter   6:  -224.76243017819314   -1.69331e-05   4.96323e-06 DIIS
   @DF-RHF iter   7:  -224.76243412603640   -3.94784e-06   2.18627e-06 DIIS
   @DF-RHF iter   8:  -224.76243488557483   -7.59538e-07   1.01631e-06 DIIS
   @DF-RHF iter   9:  -224.76243505307943   -1.67505e-07   2.83280e-07 DIIS
   @DF-RHF iter  10:  -224.76243506189707   -8.81764e-09   8.55270e-08 DIIS
   @DF-RHF iter  11:  -224.76243506258658   -6.89511e-10   1.99678e-08 DIIS
   @DF-RHF iter  12:  -224.76243506263305   -4.64695e-11   5.80973e-09 DIIS
   @DF-RHF iter  13:  -224.76243506263754   -4.49063e-12   2.83582e-09 DIIS
   @DF-RHF iter  14:  -224.76243506263833   -7.95808e-13   9.79832e-10 DIIS
   @DF-RHF iter  15:  -224.76243506263830    2.84217e-14   4.16538e-10 DIIS
   @DF-RHF iter  16:  -224.76243506263825    5.68434e-14   1.25808e-10 DIIS
   @DF-RHF iter  17:  -224.76243506263825    0.00000e+00   4.47602e-11 DIIS
  Energy and wave function converged.


  ==> Post-Iterations <==

    Orbital Energies [Eh]
    ---------------------

    Doubly Occupied:                                                      

       1A    -15.636233     2A    -15.592291     3A    -11.279903  
       4A    -11.237759     5A    -11.209884     6A     -1.387001  
       7A     -1.121894     8A     -1.066928     9A     -0.872759  
      10A     -0.837039    11A     -0.757272    12A     -0.645745  
      13A     -0.620828    14A     -0.609177    15A     -0.583905  
      16A     -0.461413    17A     -0.370715    18A     -0.346055  

    Virtual:                                                              

      19A      0.022923    20A      0.030764    21A      0.040286  
      22A      0.042369    23A      0.044380    24A      0.049158  
      25A      0.063519    26A      0.066147    27A      0.084204  
      28A      0.090997    29A      0.099195    30A      0.101001  
      31A      0.104028    32A      0.117186    33A      0.118573  
      34A      0.126077    35A      0.126272    36A      0.128500  
      37A      0.133070    38A      0.133600    39A      0.134380  
      40A      0.138399    41A      0.141487    42A      0.156889  
      43A      0.158768    44A      0.164594    45A      0.166205  
      46A      0.171081    47A      0.178407    48A      0.179445  
      49A      0.195751    50A      0.196040    51A      0.201767  
      52A      0.204806    53A      0.206166    54A      0.223191  
      55A      0.225374    56A      0.228490    57A      0.235827  
      58A      0.240240    59A      0.243627    60A      0.244965  
      61A      0.264298    62A      0.271138    63A      0.271284  
      64A      0.279081    65A      0.301024    66A      0.322165  
      67A      0.325138    68A      0.340347    69A      0.352355  
      70A      0.355359    71A      0.366795    72A      0.373138  
      73A      0.374909    74A      0.383979    75A      0.396062  
      76A      0.402744    77A      0.415005    78A      0.427749  
      79A      0.432131    80A      0.432321    81A      0.441431  
      82A      0.442587    83A      0.443379    84A      0.453414  
      85A      0.456275    86A      0.457681    87A      0.459816  
      88A      0.462144    89A      0.478656    90A      0.498544  
      91A      0.508693    92A      0.509998    93A      0.519706  
      94A      0.521953    95A      0.533413    96A      0.538297  
      97A      0.541569    98A      0.559585    99A      0.569117  
     100A      0.572097   101A      0.574428   102A      0.586322  
     103A      0.590547   104A      0.595433   105A      0.602431  
     106A      0.613617   107A      0.620974   108A      0.621514  
     109A      0.633788   110A      0.646111   111A      0.655304  
     112A      0.676168   113A      0.691108   114A      0.698039  
     115A      0.700384   116A      0.708072   117A      0.719718  
     118A      0.721648   119A      0.725121   120A      0.735945  
     121A      0.745618   122A      0.747717   123A      0.758643  
     124A      0.773300   125A      0.781476   126A      0.789959  
     127A      0.798395   128A      0.814712   129A      0.821186  
     130A      0.828513   131A      0.838238   132A      0.848382  
     133A      0.852209   134A      0.855385   135A      0.871285  
     136A      0.881343   137A      0.881396   138A      0.888762  
     139A      0.895960   140A      0.906950   141A      0.916436  
     142A      0.924803   143A      0.942599   144A      0.952376  
     145A      0.978204   146A      0.984853   147A      0.997469  
     148A      1.011170   149A      1.024473   150A      1.030547  
     151A      1.046624   152A      1.051966   153A      1.066503  
     154A      1.071444   155A      1.081286   156A      1.100853  
     157A      1.108508   158A      1.128099   159A      1.134152  
     160A      1.150240   161A      1.159130   162A      1.166626  
     163A      1.175167   164A      1.185314   165A      1.220538  
     166A      1.222073   167A      1.237390   168A      1.268342  
     169A      1.269573   170A      1.294088   171A      1.303390  
     172A      1.311431   173A      1.315498   174A      1.341041  
     175A      1.365802   176A      1.382190   177A      1.401039  
     178A      1.435363   179A      1.445091   180A      1.474706  
     181A      1.493602   182A      1.507397   183A      1.512021  
     184A      1.526136   185A      1.560976   186A      1.590889  
     187A      1.608679   188A      1.637435   189A      1.669494  
     190A      1.677091   191A      1.689272   192A      1.703636  
     193A      1.723957   194A      1.749249   195A      1.764367  
     196A      1.805025   197A      1.875589   198A      1.932406  
     199A      1.943562   200A      1.988139   201A      2.021453  
     202A      2.041442   203A      2.057662   204A      2.088810  
     205A      2.109465   206A      2.135210   207A      2.144708  
     208A      2.168487   209A      2.189999   210A      2.200828  
     211A      2.217022   212A      2.230454   213A      2.234231  
     214A      2.262240   215A      2.275832   216A      2.278119  
     217A      2.289643   218A      2.307637   219A      2.336095  
     220A      2.360646   221A      2.380939   222A      2.389121  
     223A      2.393758   224A      2.394926   225A      2.435199  
     226A      2.444266   227A      2.464942   228A      2.478702  
     229A      2.500271   230A      2.514018   231A      2.531785  
     232A      2.549204   233A      2.570195   234A      2.584820  
     235A      2.631721   236A      2.642959   237A      2.667914  
     238A      2.703415   239A      2.719278   240A      2.733013  
     241A      2.826807   242A      2.828291   243A      2.834707  
     244A      2.870209   245A      2.890417   246A      2.901543  
     247A      2.918563   248A      2.945531   249A      2.999195  
     250A      3.028456   251A      3.055311   252A      3.090223  
     253A      3.092440   254A      3.122703   255A      3.140415  
     256A      3.182359   257A      3.189011   258A      3.222030  
     259A      3.254529   260A      3.289577   261A      3.297913  
     262A      3.356160   263A      3.380219   264A      3.395988  
     265A      3.423896   266A      3.448680   267A      3.487554  
     268A      3.497895   269A      3.520764   270A      3.633943  
     271A      3.667341   272A      3.686295   273A      3.736006  
     274A      3.770479   275A      3.851568   276A      3.889250  
     277A      3.964789   278A      4.035909   279A      4.095154  
     280A      4.209312   281A      4.244484   282A      4.448822  
     283A      4.463032   284A      4.658810   285A      4.708444  
     286A      4.750328   287A      4.811182   288A      4.995263  
     289A      5.077203   290A      5.241852   291A      5.531640  
     292A      5.669361   293A      5.827258   294A      6.107098  
     295A      6.318710   296A      6.708774   297A      6.968275  
     298A     18.111573   299A     18.648254   300A     19.373989  
     301A     25.245951   302A     25.705363  

    Final Occupation by Irrep:
              A 
    DOCC [    18 ]

  @DF-RHF Final Energy:  -224.76243506263825

   => Energetics <=

    Nuclear Repulsion Energy =            166.6286028186671047
    One-Electron Energy =                -633.5084734222250518
    Two-Electron Energy =                 242.1174355409197005
    Total Energy =                       -224.7624350626382466

Computation Completed


Properties will be evaluated at   0.000000,   0.000000,   0.000000 [a0]

Properties computed using the SCF density matrix

  Nuclear Dipole Moment: [e a0]
     X:   719.9193      Y:   972.4632      Z:   704.4084

  Electronic Dipole Moment: [e a0]
     X:  -719.6284      Y:  -971.8992      Z:  -705.1115

  Dipole Moment: [e a0]
     X:     0.2909      Y:     0.5640      Z:    -0.7031     Total:     0.9472

  Dipole Moment: [D]
     X:     0.7394      Y:     1.4336      Z:    -1.7871     Total:     2.4074


*** tstop() called on ds1 at Mon Oct  4 13:23:42 2021
Module time:
	user time   =      15.57 seconds =       0.26 minutes
	system time =       0.33 seconds =       0.01 minutes
	total time  =          4 seconds =       0.07 minutes
Total time:
	user time   =      53.63 seconds =       0.89 minutes
	system time =       1.25 seconds =       0.02 minutes
	total time  =         12 seconds =       0.20 minutes
  Constructing Basis Sets for SAPT...

   => Loading Basis Set <=

    Name: (AUG-CC-PVDZ AUX)
    Role: RIFIT
    Keyword: DF_BASIS_SAPT
    atoms 1-2, 10-11 entry N          line   158 file /theoryfs2/ds/csargent/miniconda3/envs/cle/share/psi4/basis/aug-cc-pvdz-ri.gbs 
    atoms 3-6, 12-15 entry H          line    30 file /theoryfs2/ds/csargent/miniconda3/envs/cle/share/psi4/basis/aug-cc-pvdz-ri.gbs 
    atoms 7-9, 16-18 entry C          line   112 file /theoryfs2/ds/csargent/miniconda3/envs/cle/share/psi4/basis/aug-cc-pvdz-ri.gbs 


  //>>>>>>>>>>>>>>>>>>>>>>>>>>>>>>>>>>>//
  //               SAPT0               //
  //<<<<<<<<<<<<<<<<<<<<<<<<<<<<<<<<<<<//


*** tstart() called on ds1
*** at Mon Oct  4 13:23:42 2021

        SAPT0  
    Ed Hohenstein
     6 June 2009

      Orbital Information
  --------------------------
    NSO        =       302
    NMO        =       302
    NRI        =       904
    NOCC A     =        18
    NOCC B     =        18
    FOCC A     =         5
    FOCC B     =         5
    NVIR A     =       284
    NVIR B     =       284

    Elst10,r            =    -0.000018378701 [Eh]
    Exch10              =     0.000000000000 [Eh]
    Exch10 (S^2)        =     0.000000000000 [Eh]

    Iter     Energy [mEh]          dE [mEh]         Residual      Time [s]
       1      -0.00000846       0.000008458       0.030144236             0
       2      -0.00000779      -0.000000670       0.007478577             0
       3      -0.00000847       0.000000680       0.003175422             0
       4      -0.00000861       0.000000141       0.000848895             0
       5      -0.00000858      -0.000000026       0.000489273             1
       6      -0.00000857      -0.000000010       0.000162985             1
       7      -0.00000858       0.000000004       0.000059704             1
       8      -0.00000858       0.000000001       0.000014666             1
       9      -0.00000858      -0.000000000       0.000005317             1
      10      -0.00000858      -0.000000000       0.000001527             1
      11      -0.00000858       0.000000000       0.000000643             1

    CHF Iterations converged


    Iter     Energy [mEh]          dE [mEh]         Residual      Time [s]
       1      -0.00001949       0.000019492       0.046921226             0
       2      -0.00001776      -0.000001728       0.011883344             1
       3      -0.00001909       0.000001322       0.005812103             1
       4      -0.00001961       0.000000527       0.001287491             1
       5      -0.00001954      -0.000000071       0.000815323             1
       6      -0.00001952      -0.000000023       0.000293620             1
       7      -0.00001953       0.000000010       0.000110307             1
       8      -0.00001953       0.000000002       0.000038386             1
       9      -0.00001953      -0.000000000       0.000009905             1
      10      -0.00001953      -0.000000000       0.000002936             2
      11      -0.00001953       0.000000000       0.000001144             2
      12      -0.00001953       0.000000000       0.000000318             2

    CHF Iterations converged

    Ind20,r (A<-B)      =    -0.000000008577 [Eh]
    Ind20,r (B<-A)      =    -0.000000019530 [Eh]
    Ind20,r             =    -0.000000028107 [Eh]
    Exch-Ind20,r (A<-B) =     0.000000000000 [Eh]
    Exch-Ind20,r (B<-A) =     0.000000000000 [Eh]
    Exch-Ind20,r        =     0.000000000000 [Eh]
    Disp20              =    -0.000000332726 [Eh]
    Disp20 (SS)         =    -0.000000166363 [Eh]
    Disp20 (OS)         =    -0.000000166363 [Eh]
    Exch-Disp20         =     0.000000000000 [Eh]
    Exch-Disp20 (SS)    =     0.000000000000 [Eh]
    Exch-Disp20 (OS)    =     0.000000000000 [Eh]

    SAPT Results 
  --------------------------------------------------------------------------------------------------------
    Electrostatics                 -0.01837870 [mEh]      -0.01153281 [kcal/mol]      -0.04825327 [kJ/mol]
      Elst10,r                     -0.01837870 [mEh]      -0.01153281 [kcal/mol]      -0.04825327 [kJ/mol]

    Exchange                        0.00000000 [mEh]       0.00000000 [kcal/mol]       0.00000000 [kJ/mol]
      Exch10                        0.00000000 [mEh]       0.00000000 [kcal/mol]       0.00000000 [kJ/mol]
      Exch10(S^2)                   0.00000000 [mEh]       0.00000000 [kcal/mol]       0.00000000 [kJ/mol]

    Induction                       0.00001997 [mEh]       0.00001253 [kcal/mol]       0.00005244 [kJ/mol]
      Ind20,r                      -0.00002811 [mEh]      -0.00001764 [kcal/mol]      -0.00007380 [kJ/mol]
      Exch-Ind20,r                  0.00000000 [mEh]       0.00000000 [kcal/mol]       0.00000000 [kJ/mol]
      delta HF,r (2)                0.00004808 [mEh]       0.00003017 [kcal/mol]       0.00012624 [kJ/mol]

    Dispersion                     -0.00033273 [mEh]      -0.00020879 [kcal/mol]      -0.00087357 [kJ/mol]
      Disp20                       -0.00033273 [mEh]      -0.00020879 [kcal/mol]      -0.00087357 [kJ/mol]
      Exch-Disp20                   0.00000000 [mEh]       0.00000000 [kcal/mol]       0.00000000 [kJ/mol]
      Disp20 (SS)                  -0.00016636 [mEh]      -0.00010439 [kcal/mol]      -0.00043679 [kJ/mol]
      Disp20 (OS)                  -0.00016636 [mEh]      -0.00010439 [kcal/mol]      -0.00043679 [kJ/mol]
      Exch-Disp20 (SS)              0.00000000 [mEh]       0.00000000 [kcal/mol]       0.00000000 [kJ/mol]
      Exch-Disp20 (OS)              0.00000000 [mEh]       0.00000000 [kcal/mol]       0.00000000 [kJ/mol]

  Total HF                         -0.01835873 [mEh]      -0.01152028 [kcal/mol]      -0.04820083 [kJ/mol]
  Total SAPT0                      -0.01869145 [mEh]      -0.01172906 [kcal/mol]      -0.04907440 [kJ/mol]

  Special recipe for scaled SAPT0 (see Manual):
    Electrostatics sSAPT0          -0.01837870 [mEh]      -0.01153281 [kcal/mol]      -0.04825327 [kJ/mol]
    Exchange sSAPT0                 0.00000000 [mEh]       0.00000000 [kcal/mol]       0.00000000 [kJ/mol]
    Induction sSAPT0                0.00001997 [mEh]       0.00001253 [kcal/mol]       0.00005244 [kJ/mol]
    Dispersion sSAPT0              -0.00033273 [mEh]      -0.00020879 [kcal/mol]      -0.00087357 [kJ/mol]
  Total sSAPT0                     -0.01869145 [mEh]      -0.01172906 [kcal/mol]      -0.04907440 [kJ/mol]
  --------------------------------------------------------------------------------------------------------

*** tstop() called on ds1 at Mon Oct  4 13:23:51 2021
Module time:
	user time   =      44.52 seconds =       0.74 minutes
	system time =       3.90 seconds =       0.07 minutes
	total time  =          9 seconds =       0.15 minutes
Total time:
	user time   =      98.79 seconds =       1.65 minutes
	system time =       5.19 seconds =       0.09 minutes
	total time  =         21 seconds =       0.35 minutes


Warning! sapt0 does not have an associated derived wavefunction.The returned wavefunction is the dimer SCF wavefunction.


    Psi4 stopped on: Monday, 04 October 2021 01:23PM
    Psi4 wall time for execution: 0:00:21.26

*** Psi4 exiting successfully. Buy a developer a beer!
