
    -----------------------------------------------------------------------
          Psi4: An Open-Source Ab Initio Electronic Structure Package
                               Psi4 1.4rc3 

                         Git: Rev {HEAD} 080dba6 


    D. G. A. Smith, L. A. Burns, A. C. Simmonett, R. M. Parrish,
    M. C. Schieber, R. Galvelis, P. Kraus, H. Kruse, R. Di Remigio,
    A. Alenaizan, A. M. James, S. Lehtola, J. P. Misiewicz, M. Scheurer,
    R. A. Shaw, J. B. Schriber, Y. Xie, Z. L. Glick, D. A. Sirianni,
    J. S. O'Brien, J. M. Waldrop, A. Kumar, E. G. Hohenstein,
    B. P. Pritchard, B. R. Brooks, H. F. Schaefer III, A. Yu. Sokolov,
    K. Patkowski, A. E. DePrince III, U. Bozkaya, R. A. King,
    F. A. Evangelista, J. M. Turney, T. D. Crawford, C. D. Sherrill,
    J. Chem. Phys. 152(18) 184108 (2020). https://doi.org/10.1063/5.0006002

                            Additional Code Authors
    E. T. Seidl, C. L. Janssen, E. F. Valeev, M. L. Leininger,
    J. F. Gonthier, R. M. Richard, H. R. McAlexander, M. Saitow, X. Wang,
    P. Verma, and M. H. Lechner

             Previous Authors, Complete List of Code Contributors,
                       and Citations for Specific Modules
    https://github.com/psi4/psi4/blob/master/codemeta.json
    https://github.com/psi4/psi4/graphs/contributors
    http://psicode.org/psi4manual/master/introduction.html#citing-psifour

    -----------------------------------------------------------------------


    Psi4 started on: Monday, 04 October 2021 01:49PM

    Process ID: 8730
    Host:       ds1
    PSIDATADIR: /theoryfs2/ds/csargent/miniconda3/envs/cle/share/psi4
    Memory:     500.0 MiB
    Threads:    6
    
  ==> Input File <==

--------------------------------------------------------------------------
# PSI4 file produced by CrystaLattE

# Generated from:               pyrazole.xyz
# Psithon input for N-mer:      2mer-0+88
# Number of atoms per monomer:  [9, 9]
# Number of replicas:           2
# COM priority:                 8.314778015365e-05
# Minimum COM separations:      12.124 
# Separation priority:          1.394324564190e-04
# Minimum monomer separations:  10.205 
# Cutoff priority:              7.230225425381e-06
# Nuclear repulsion energy:     389.72291833978437

memory 7 GB

molecule Dimer_0_88 {
  N            6.27981210      -4.25303372       0.19313865 
  N            6.06870777      -2.28125697       1.80544317 
  H            3.66871156      -5.64628941      -1.96684001 
  H            0.69034521      -2.37545694      -0.42864236 
  H            3.35917442       0.17650601       3.09265017 
  H            7.35266782      -1.99461311       2.90680702 
  C            3.77952586      -1.21508453       1.76858172 
  C            2.38242998      -2.55505538       0.04607681 
  C            4.01771468      -4.38410490      -0.88761863 
--
  N           -1.45861638     -16.14696995      19.05161074 
  N           -1.66972071     -14.17519320      17.43930622 
  H           -4.06971692     -17.54022564      21.21158940 
  H           -7.04808328     -14.26939318      19.67339175 
  H           -4.37925406     -11.71743022      16.15209922 
  H           -0.38576066     -13.88854934      16.33794237 
  C           -3.95890263     -13.10902076      17.47616767 
  C           -5.35599851     -14.44899162      19.19867257 
  C           -3.72071380     -16.27804113      20.13236801 
units = au
no_com
no_reorient
}

set {
  e_convergence 10
  d_convergence 10
  scf_type df
  mp2_type df
  cc_type df
  freeze_core true
}

energy('sapt0/aug-cc-pvdz')

--------------------------------------------------------------------------

  Memory set to   6.519 GiB by Python driver.

Scratch directory: /scratch/csargent/psi4.7158.66302/

Scratch directory: /scratch/csargent/psi4.7158.66302/

  //>>>>>>>>>>>>>>>>>>>>>>>>>>>>>>>>>>>//
  //              Dimer HF             //
  //<<<<<<<<<<<<<<<<<<<<<<<<<<<<<<<<<<<//


*** tstart() called on ds1
*** at Mon Oct  4 13:49:17 2021

   => Loading Basis Set <=

    Name: AUG-CC-PVDZ
    Role: ORBITAL
    Keyword: BASIS
    atoms 1-2, 10-11 entry N          line   218 file /theoryfs2/ds/csargent/miniconda3/envs/cle/share/psi4/basis/aug-cc-pvdz.gbs 
    atoms 3-6, 12-15 entry H          line    40 file /theoryfs2/ds/csargent/miniconda3/envs/cle/share/psi4/basis/aug-cc-pvdz.gbs 
    atoms 7-9, 16-18 entry C          line   182 file /theoryfs2/ds/csargent/miniconda3/envs/cle/share/psi4/basis/aug-cc-pvdz.gbs 


         ---------------------------------------------------------
                                   SCF
               by Justin Turney, Rob Parrish, Andy Simmonett
                          and Daniel G. A. Smith
                              RHF Reference
                        6 Threads,   6675 MiB Core
         ---------------------------------------------------------

  ==> Geometry <==

    Molecular point group: c1
    Full point group: C1

    Geometry (in Bohr), charge = 0, multiplicity = 1:

       Center              X                  Y                   Z               Mass       
    ------------   -----------------  -----------------  -----------------  -----------------
         N            6.279812100000    -4.253033720000     0.193138650000    14.003074004430
         N            6.068707770000    -2.281256970000     1.805443170000    14.003074004430
         H            3.668711560000    -5.646289410000    -1.966840010000     1.007825032230
         H            0.690345210000    -2.375456940000    -0.428642360000     1.007825032230
         H            3.359174420000     0.176506010000     3.092650170000     1.007825032230
         H            7.352667820000    -1.994613110000     2.906807020000     1.007825032230
         C            3.779525860000    -1.215084530000     1.768581720000    12.000000000000
         C            2.382429980000    -2.555055380000     0.046076810000    12.000000000000
         C            4.017714680000    -4.384104900000    -0.887618630000    12.000000000000
         N           -1.458616380000   -16.146969950000    19.051610740000    14.003074004430
         N           -1.669720710000   -14.175193200000    17.439306220000    14.003074004430
         H           -4.069716920000   -17.540225640000    21.211589400000     1.007825032230
         H           -7.048083280000   -14.269393180000    19.673391750000     1.007825032230
         H           -4.379254060000   -11.717430220000    16.152099220000     1.007825032230
         H           -0.385760660000   -13.888549340000    16.337942370000     1.007825032230
         C           -3.958902630000   -13.109020760000    17.476167670000    12.000000000000
         C           -5.355998510000   -14.448991620000    19.198672570000    12.000000000000
         C           -3.720713800000   -16.278041130000    20.132368010000    12.000000000000

  Running in c1 symmetry.

  Rotational constants: A =      0.02544  B =      0.00151  C =      0.00144 [cm^-1]
  Rotational constants: A =    762.61552  B =     45.35621  C =     43.18642 [MHz]
  Nuclear repulsion =  389.722918301243965

  Charge       = 0
  Multiplicity = 1
  Electrons    = 72
  Nalpha       = 36
  Nbeta        = 36

  ==> Algorithm <==

  SCF Algorithm Type is DF.
  DIIS enabled.
  MOM disabled.
  Fractional occupation disabled.
  Guess Type is SAD.
  Energy threshold   = 1.00e-10
  Density threshold  = 1.00e-10
  Integral threshold = 1.00e-12

  ==> Primary Basis <==

  Basis Set: AUG-CC-PVDZ
    Blend: AUG-CC-PVDZ
    Number of shells: 130
    Number of basis functions: 302
    Number of Cartesian functions: 322
    Spherical Harmonics?: true
    Max angular momentum: 2

   => Loading Basis Set <=

    Name: (AUG-CC-PVDZ AUX)
    Role: JKFIT
    Keyword: DF_BASIS_SCF
    atoms 1-2, 10-11 entry N          line   212 file /theoryfs2/ds/csargent/miniconda3/envs/cle/share/psi4/basis/aug-cc-pvdz-jkfit.gbs 
    atoms 3-6, 12-15 entry H          line    70 file /theoryfs2/ds/csargent/miniconda3/envs/cle/share/psi4/basis/aug-cc-pvdz-jkfit.gbs 
    atoms 7-9, 16-18 entry C          line   154 file /theoryfs2/ds/csargent/miniconda3/envs/cle/share/psi4/basis/aug-cc-pvdz-jkfit.gbs 

  ==> Integral Setup <==

  ==> DiskDFJK: Density-Fitted J/K Matrices <==

    J tasked:                  Yes
    K tasked:                  Yes
    wK tasked:                  No
    OpenMP threads:              6
    Integrals threads:           6
    Memory [MiB]:             5006
    Algorithm:                Core
    Integral Cache:           SAVE
    Schwarz Cutoff:          1E-12
    Fitting Condition:       1E-10

   => Auxiliary Basis Set <=

  Basis Set: (AUG-CC-PVDZ AUX)
    Blend: AUG-CC-PVDZ-JKFIT
    Number of shells: 376
    Number of basis functions: 1116
    Number of Cartesian functions: 1290
    Spherical Harmonics?: true
    Max angular momentum: 3

  Minimum eigenvalue in the overlap matrix is 3.0323359621E-05.
  Reciprocal condition number of the overlap matrix is 2.4864188090E-06.
    Using symmetric orthogonalization.

  ==> Pre-Iterations <==

  SCF Guess: Superposition of Atomic Densities via on-the-fly atomic UHF (no occupation information).

   -------------------------
    Irrep   Nso     Nmo    
   -------------------------
     A        302     302 
   -------------------------
    Total     302     302
   -------------------------

  ==> Iterations <==

                           Total Energy        Delta E     RMS |[F,P]|

   @DF-RHF iter SAD:  -449.44389605230151   -4.49444e+02   0.00000e+00 
   @DF-RHF iter   1:  -449.27097656726971    1.72919e-01   2.12794e-03 DIIS
   @DF-RHF iter   2:  -449.47967634184340   -2.08700e-01   9.73682e-04 DIIS
   @DF-RHF iter   3:  -449.52149719088646   -4.18208e-02   2.10347e-04 DIIS
   @DF-RHF iter   4:  -449.52426751680321   -2.77033e-03   8.57465e-05 DIIS
   @DF-RHF iter   5:  -449.52462530990658   -3.57793e-04   1.69567e-05 DIIS
   @DF-RHF iter   6:  -449.52465920684529   -3.38969e-05   7.02549e-06 DIIS
   @DF-RHF iter   7:  -449.52466710607814   -7.89923e-06   3.10558e-06 DIIS
   @DF-RHF iter   8:  -449.52466863274390   -1.52667e-06   1.43968e-06 DIIS
   @DF-RHF iter   9:  -449.52466896964552   -3.36902e-07   4.02609e-07 DIIS
   @DF-RHF iter  10:  -449.52466898747571   -1.78302e-08   1.20994e-07 DIIS
   @DF-RHF iter  11:  -449.52466898886422   -1.38851e-09   2.83494e-08 DIIS
   @DF-RHF iter  12:  -449.52466898895682   -9.25979e-11   8.28695e-09 DIIS
   @DF-RHF iter  13:  -449.52466898896591   -9.09495e-12   4.05515e-09 DIIS
   @DF-RHF iter  14:  -449.52466898896785   -1.93268e-12   1.40611e-09 DIIS
   @DF-RHF iter  15:  -449.52466898896870   -8.52651e-13   5.96892e-10 DIIS
   @DF-RHF iter  16:  -449.52466898896785    8.52651e-13   1.79652e-10 DIIS
   @DF-RHF iter  17:  -449.52466898896802   -1.70530e-13   6.33893e-11 DIIS
  Energy and wave function converged.


  ==> Post-Iterations <==

    Orbital Energies [Eh]
    ---------------------

    Doubly Occupied:                                                      

       1A    -15.637994     2A    -15.636344     3A    -15.594065  
       4A    -15.592439     5A    -11.281698     6A    -11.280053  
       7A    -11.239529     8A    -11.237903     9A    -11.211699  
      10A    -11.210059    11A     -1.388693    12A     -1.387044  
      13A     -1.123662    14A     -1.122021    15A     -1.068693  
      16A     -1.067048    17A     -0.874528    18A     -0.872890  
      19A     -0.838830    20A     -0.837202    21A     -0.759095  
      22A     -0.757460    23A     -0.647510    24A     -0.645874  
      25A     -0.622611    26A     -0.620979    27A     -0.610917  
      28A     -0.609266    29A     -0.585709    30A     -0.584081  
      31A     -0.463132    32A     -0.461512    33A     -0.372488  
      34A     -0.370844    35A     -0.347849    36A     -0.346197  

    Virtual:                                                              

      37A      0.025741    38A      0.032959    39A      0.040405  
      40A      0.042838    41A      0.046547    42A      0.049930  
      43A      0.062022    44A      0.063671    45A      0.098567  
      46A      0.100671    47A      0.102396    48A      0.103920  
      49A      0.115179    50A      0.117047    51A      0.123453  
      52A      0.126023    53A      0.131252    54A      0.133991  
      55A      0.136156    56A      0.138201    57A      0.139734  
      58A      0.141684    59A      0.154266    60A      0.158433  
      61A      0.162767    62A      0.166078    63A      0.169298  
      64A      0.171074    65A      0.176007    66A      0.180530  
      67A      0.194094    68A      0.196925    69A      0.203091  
      70A      0.204310    71A      0.204921    72A      0.206323  
      73A      0.238535    74A      0.240086    75A      0.242050  
      76A      0.243312    77A      0.243717    78A      0.244911  
      79A      0.269499    80A      0.271053    81A      0.277453  
      82A      0.278927    83A      0.299524    84A      0.300957  
      85A      0.323464    86A      0.325020    87A      0.350501  
      88A      0.352476    89A      0.353745    90A      0.355457  
      91A      0.372988    92A      0.374972    93A      0.393625  
      94A      0.397147    95A      0.401014    96A      0.402780  
      97A      0.413994    98A      0.414861    99A      0.430252  
     100A      0.433019   101A      0.441756   102A      0.443552  
     103A      0.451723   104A      0.453318   105A      0.457989  
     106A      0.459717   107A      0.477090   108A      0.478780  
     109A      0.496833   110A      0.498475   111A      0.507077  
     112A      0.508575   113A      0.520214   114A      0.521776  
     115A      0.539810   116A      0.542280   117A      0.572277  
     118A      0.575172   119A      0.584668   120A      0.586248  
     121A      0.588794   122A      0.590483   123A      0.600546  
     124A      0.602353   125A      0.619262   126A      0.620832  
     127A      0.644334   128A      0.645960   129A      0.653595  
     130A      0.655252   131A      0.674361   132A      0.676084  
     133A      0.696317   134A      0.697880   135A      0.698681  
     136A      0.700304   137A      0.720037   138A      0.721548  
     139A      0.723388   140A      0.725215   141A      0.745938  
     142A      0.747578   143A      0.756895   144A      0.758451  
     145A      0.771526   146A      0.773200   147A      0.779685  
     148A      0.781701   149A      0.826805   150A      0.828453  
     151A      0.836476   152A      0.838212   153A      0.846711  
     154A      0.848459   155A      0.879661   156A      0.881362  
     157A      0.886956   158A      0.888812   159A      0.905201  
     160A      0.906846   161A      0.923103   162A      0.925057  
     163A      0.940801   164A      0.942445   165A      0.976451  
     166A      0.978087   167A      0.983081   168A      0.984708  
     169A      1.009476   170A      1.011052   171A      1.044912  
     172A      1.046591   173A      1.064743   174A      1.066376  
     175A      1.099113   176A      1.100804   177A      1.126354  
     178A      1.127967   179A      1.132382   180A      1.134393  
     181A      1.148409   182A      1.150121   183A      1.173427  
     184A      1.175068   185A      1.218835   186A      1.220495  
     187A      1.267894   188A      1.269434   189A      1.301609  
     190A      1.303223   191A      1.309658   192A      1.311300  
     193A      1.363356   194A      1.366905   195A      1.399308  
     196A      1.400986   197A      1.472965   198A      1.474692  
     199A      1.510240   200A      1.511919   201A      1.524353  
     202A      1.526014   203A      1.559230   204A      1.560896  
     205A      1.589048   206A      1.590863   207A      1.606899  
     208A      1.608537   209A      1.635939   210A      1.637307  
     211A      1.667436   212A      1.670082   213A      1.701837  
     214A      1.703616   215A      1.722195   216A      1.723844  
     217A      1.747622   218A      1.749209   219A      1.762676  
     220A      1.764342   221A      1.803284   222A      1.804915  
     223A      1.873847   224A      1.875472   225A      1.930552  
     226A      1.932620   227A      1.941750   228A      1.943393  
     229A      1.986368   230A      1.987927   231A      2.019690  
     232A      2.021325   233A      2.055835   234A      2.057504  
     235A      2.087214   236A      2.088697   237A      2.142912  
     238A      2.144589   239A      2.188232   240A      2.189859  
     241A      2.199056   242A      2.200681   243A      2.229044  
     244A      2.230439   245A      2.274106   246A      2.275690  
     247A      2.305874   248A      2.307594   249A      2.358951  
     250A      2.360573   251A      2.387298   252A      2.389206  
     253A      2.392025   254A      2.394047   255A      2.433499  
     256A      2.435136   257A      2.463209   258A      2.464888  
     259A      2.530040   260A      2.531678   261A      2.568467  
     262A      2.570107   263A      2.582978   264A      2.584633  
     265A      2.641276   266A      2.642917   267A      2.731269  
     268A      2.732896   269A      2.825090   270A      2.826725  
     271A      2.833008   272A      2.834637   273A      2.899827  
     274A      2.901478   275A      2.916845   276A      2.918474  
     277A      2.997384   278A      2.999055   279A      3.053557  
     280A      3.055254   281A      3.090615   282A      3.092318  
     283A      3.120963   284A      3.122760   285A      3.187273  
     286A      3.188818   287A      3.220248   288A      3.221885  
     289A      3.296143   290A      3.297779   291A      3.378442  
     292A      3.380168   293A      3.518974   294A      3.520623  
     295A      3.684802   296A      3.686430   297A      3.887549  
     298A      3.889303   299A      4.207704   300A      4.209485  
     301A      4.461483   302A      4.463105  

    Final Occupation by Irrep:
              A 
    DOCC [    36 ]

  @DF-RHF Final Energy:  -449.52466898896802

   => Energetics <=

    Nuclear Repulsion Energy =            389.7229183012439648
    One-Electron Energy =               -1379.8793436959970222
    Two-Electron Energy =                 540.6317564057851541
    Total Energy =                       -449.5246689889679601

Computation Completed


Properties will be evaluated at   0.000000,   0.000000,   0.000000 [a0]

Properties computed using the SCF density matrix

  Nuclear Dipole Moment: [e a0]
     X:    46.5937      Y:  -637.1924      Z:   692.8110

  Electronic Dipole Moment: [e a0]
     X:   -47.3942      Y:   638.4550      Z:  -692.8169

  Dipole Moment: [e a0]
     X:    -0.8005      Y:     1.2625      Z:    -0.0059     Total:     1.4950

  Dipole Moment: [D]
     X:    -2.0347      Y:     3.2091      Z:    -0.0149     Total:     3.7998


*** tstop() called on ds1 at Mon Oct  4 13:49:23 2021
Module time:
	user time   =      25.71 seconds =       0.43 minutes
	system time =       0.56 seconds =       0.01 minutes
	total time  =          6 seconds =       0.10 minutes
Total time:
	user time   =      25.71 seconds =       0.43 minutes
	system time =       0.56 seconds =       0.01 minutes
	total time  =          6 seconds =       0.10 minutes

  //>>>>>>>>>>>>>>>>>>>>>>>>>>>>>>>>>>>//
  //            Monomer A HF           //
  //<<<<<<<<<<<<<<<<<<<<<<<<<<<<<<<<<<<//


*** tstart() called on ds1
*** at Mon Oct  4 13:49:23 2021

   => Loading Basis Set <=

    Name: AUG-CC-PVDZ
    Role: ORBITAL
    Keyword: BASIS
    atoms 1-2, 10-11 entry N          line   218 file /theoryfs2/ds/csargent/miniconda3/envs/cle/share/psi4/basis/aug-cc-pvdz.gbs 
    atoms 3-6, 12-15 entry H          line    40 file /theoryfs2/ds/csargent/miniconda3/envs/cle/share/psi4/basis/aug-cc-pvdz.gbs 
    atoms 7-9, 16-18 entry C          line   182 file /theoryfs2/ds/csargent/miniconda3/envs/cle/share/psi4/basis/aug-cc-pvdz.gbs 


         ---------------------------------------------------------
                                   SCF
               by Justin Turney, Rob Parrish, Andy Simmonett
                          and Daniel G. A. Smith
                              RHF Reference
                        6 Threads,   6675 MiB Core
         ---------------------------------------------------------

  ==> Geometry <==

    Molecular point group: c1
    Full point group: C1

    Geometry (in Bohr), charge = 0, multiplicity = 1:

       Center              X                  Y                   Z               Mass       
    ------------   -----------------  -----------------  -----------------  -----------------
         N            6.279812100000    -4.253033720000     0.193138650000    14.003074004430
         N            6.068707770000    -2.281256970000     1.805443170000    14.003074004430
         H            3.668711560000    -5.646289410000    -1.966840010000     1.007825032230
         H            0.690345210000    -2.375456940000    -0.428642360000     1.007825032230
         H            3.359174420000     0.176506010000     3.092650170000     1.007825032230
         H            7.352667820000    -1.994613110000     2.906807020000     1.007825032230
         C            3.779525860000    -1.215084530000     1.768581720000    12.000000000000
         C            2.382429980000    -2.555055380000     0.046076810000    12.000000000000
         C            4.017714680000    -4.384104900000    -0.887618630000    12.000000000000
      Gh(N)          -1.458616380000   -16.146969950000    19.051610740000    14.003074004430
      Gh(N)          -1.669720710000   -14.175193200000    17.439306220000    14.003074004430
      Gh(H)          -4.069716920000   -17.540225640000    21.211589400000     1.007825032230
      Gh(H)          -7.048083280000   -14.269393180000    19.673391750000     1.007825032230
      Gh(H)          -4.379254060000   -11.717430220000    16.152099220000     1.007825032230
      Gh(H)          -0.385760660000   -13.888549340000    16.337942370000     1.007825032230
      Gh(C)          -3.958902630000   -13.109020760000    17.476167670000    12.000000000000
      Gh(C)          -5.355998510000   -14.448991620000    19.198672570000    12.000000000000
      Gh(C)          -3.720713800000   -16.278041130000    20.132368010000    12.000000000000

  Running in c1 symmetry.

  Rotational constants: A =      0.02544  B =      0.00151  C =      0.00144 [cm^-1]
  Rotational constants: A =    762.61552  B =     45.35621  C =     43.18642 [MHz]
  Nuclear repulsion =  166.624056450327203

  Charge       = 0
  Multiplicity = 1
  Electrons    = 36
  Nalpha       = 18
  Nbeta        = 18

  ==> Algorithm <==

  SCF Algorithm Type is DF.
  DIIS enabled.
  MOM disabled.
  Fractional occupation disabled.
  Guess Type is SAD.
  Energy threshold   = 1.00e-10
  Density threshold  = 1.00e-10
  Integral threshold = 1.00e-12

  ==> Primary Basis <==

  Basis Set: AUG-CC-PVDZ
    Blend: AUG-CC-PVDZ
    Number of shells: 130
    Number of basis functions: 302
    Number of Cartesian functions: 322
    Spherical Harmonics?: true
    Max angular momentum: 2

   => Loading Basis Set <=

    Name: (AUG-CC-PVDZ AUX)
    Role: JKFIT
    Keyword: DF_BASIS_SCF
    atoms 1-2, 10-11 entry N          line   212 file /theoryfs2/ds/csargent/miniconda3/envs/cle/share/psi4/basis/aug-cc-pvdz-jkfit.gbs 
    atoms 3-6, 12-15 entry H          line    70 file /theoryfs2/ds/csargent/miniconda3/envs/cle/share/psi4/basis/aug-cc-pvdz-jkfit.gbs 
    atoms 7-9, 16-18 entry C          line   154 file /theoryfs2/ds/csargent/miniconda3/envs/cle/share/psi4/basis/aug-cc-pvdz-jkfit.gbs 

  ==> Integral Setup <==

  ==> DiskDFJK: Density-Fitted J/K Matrices <==

    J tasked:                  Yes
    K tasked:                  Yes
    wK tasked:                  No
    OpenMP threads:              6
    Integrals threads:           6
    Memory [MiB]:             5006
    Algorithm:                Core
    Integral Cache:           LOAD
    Schwarz Cutoff:          1E-12
    Fitting Condition:       1E-10

   => Auxiliary Basis Set <=

  Basis Set: (AUG-CC-PVDZ AUX)
    Blend: AUG-CC-PVDZ-JKFIT
    Number of shells: 376
    Number of basis functions: 1116
    Number of Cartesian functions: 1290
    Spherical Harmonics?: true
    Max angular momentum: 3

  Minimum eigenvalue in the overlap matrix is 3.0323359621E-05.
  Reciprocal condition number of the overlap matrix is 2.4864188090E-06.
    Using symmetric orthogonalization.

  ==> Pre-Iterations <==

  SCF Guess: Superposition of Atomic Densities via on-the-fly atomic UHF (no occupation information).

   -------------------------
    Irrep   Nso     Nmo    
   -------------------------
     A        302     302 
   -------------------------
    Total     302     302
   -------------------------

  ==> Iterations <==

                           Total Energy        Delta E     RMS |[F,P]|

   @DF-RHF iter SAD:  -224.72194802230030   -2.24722e+02   0.00000e+00 
   @DF-RHF iter   1:  -224.63549241998570    8.64556e-02   1.50473e-03 DIIS
   @DF-RHF iter   2:  -224.73984711677321   -1.04355e-01   6.88464e-04 DIIS
   @DF-RHF iter   3:  -224.76075593298728   -2.09088e-02   1.48626e-04 DIIS
   @DF-RHF iter   4:  -224.76214037813969   -1.38445e-03   6.05311e-05 DIIS
   @DF-RHF iter   5:  -224.76231873334177   -1.78355e-04   1.19894e-05 DIIS
   @DF-RHF iter   6:  -224.76233569079770   -1.69575e-05   4.96772e-06 DIIS
   @DF-RHF iter   7:  -224.76233964683792   -3.95604e-06   2.18807e-06 DIIS
   @DF-RHF iter   8:  -224.76234040758305   -7.60745e-07   1.01700e-06 DIIS
   @DF-RHF iter   9:  -224.76234057522501   -1.67642e-07   2.83304e-07 DIIS
   @DF-RHF iter  10:  -224.76234058404594   -8.82093e-09   8.55549e-08 DIIS
   @DF-RHF iter  11:  -224.76234058473557   -6.89624e-10   1.99716e-08 DIIS
   @DF-RHF iter  12:  -224.76234058478167   -4.61000e-11   5.81104e-09 DIIS
   @DF-RHF iter  13:  -224.76234058478593   -4.26326e-12   2.83108e-09 DIIS
   @DF-RHF iter  14:  -224.76234058478701   -1.08002e-12   9.75253e-10 DIIS
   @DF-RHF iter  15:  -224.76234058478741   -3.97904e-13   4.15565e-10 DIIS
   @DF-RHF iter  16:  -224.76234058478704    3.69482e-13   1.25998e-10 DIIS
   @DF-RHF iter  17:  -224.76234058478667    3.69482e-13   4.47774e-11 DIIS
  Energy and wave function converged.


  ==> Post-Iterations <==

    Orbital Energies [Eh]
    ---------------------

    Doubly Occupied:                                                      

       1A    -15.636223     2A    -15.592314     3A    -11.279894  
       4A    -11.237784     5A    -11.209891     6A     -1.386922  
       7A     -1.121902     8A     -1.066898     9A     -0.872768  
      10A     -0.837061    11A     -0.757293    12A     -0.645746  
      13A     -0.620834    14A     -0.609140    15A     -0.583920  
      16A     -0.461404    17A     -0.370721    18A     -0.346048  

    Virtual:                                                              

      19A      0.022209    20A      0.029964    21A      0.040035  
      22A      0.042790    23A      0.044065    24A      0.049046  
      25A      0.063501    26A      0.066032    27A      0.083786  
      28A      0.089946    29A      0.098270    30A      0.101747  
      31A      0.104028    32A      0.116512    33A      0.118531  
      34A      0.124021    35A      0.127324    36A      0.129064  
      37A      0.132915    38A      0.133602    39A      0.134234  
      40A      0.138813    41A      0.141553    42A      0.156942  
      43A      0.158735    44A      0.164384    45A      0.167266  
      46A      0.171060    47A      0.177781    48A      0.180409  
      49A      0.195319    50A      0.196401    51A      0.201516  
      52A      0.204871    53A      0.206208    54A      0.222969  
      55A      0.225303    56A      0.228186    57A      0.235818  
      58A      0.240403    59A      0.243965    60A      0.245124  
      61A      0.264078    62A      0.270327    63A      0.272056  
      64A      0.279146    65A      0.301039    66A      0.321107  
      67A      0.326775    68A      0.340083    69A      0.352370  
      70A      0.355373    71A      0.366428    72A      0.372507  
      73A      0.375486    74A      0.383616    75A      0.396649  
      76A      0.402759    77A      0.415575    78A      0.427221  
      79A      0.431848    80A      0.432537    81A      0.441047  
      82A      0.442144    83A      0.443430    84A      0.453384  
      85A      0.456004    86A      0.457485    87A      0.459887  
      88A      0.461794    89A      0.479067    90A      0.498539  
      91A      0.508604    92A      0.509628    93A      0.519828  
      94A      0.522366    95A      0.533061    96A      0.537763  
      97A      0.542840    98A      0.559372    99A      0.568836  
     100A      0.571664   101A      0.574697   102A      0.586521  
     103A      0.590577   104A      0.595049   105A      0.602440  
     106A      0.613339   107A      0.621056   108A      0.621229  
     109A      0.633423   110A      0.646117   111A      0.655321  
     112A      0.676190   113A      0.690694   114A      0.698049  
     115A      0.700460   116A      0.707713   117A      0.719372  
     118A      0.721890   119A      0.725201   120A      0.735617  
     121A      0.745417   122A      0.747730   123A      0.758637  
     124A      0.773332   125A      0.781638   126A      0.789671  
     127A      0.798191   128A      0.814721   129A      0.820878  
     130A      0.828517   131A      0.838267   132A      0.848416  
     133A      0.851822   134A      0.855133   135A      0.870905  
     136A      0.880973   137A      0.881456   138A      0.888800  
     139A      0.895632   140A      0.906971   141A      0.916256  
     142A      0.924853   143A      0.942584   144A      0.952086  
     145A      0.978258   146A      0.984856   147A      0.997124  
     148A      1.011170   149A      1.024123   150A      1.030445  
     151A      1.046630   152A      1.051611   153A      1.066509  
     154A      1.071293   155A      1.081077   156A      1.100900  
     157A      1.108247   158A      1.128136   159A      1.134249  
     160A      1.150240   161A      1.158815   162A      1.166331  
     163A      1.175174   164A      1.185187   165A      1.220576  
     166A      1.221765   167A      1.237035   168A      1.268103  
     169A      1.269674   170A      1.293814   171A      1.303348  
     172A      1.311420   173A      1.315190   174A      1.340738  
     175A      1.366087   176A      1.381910   177A      1.401132  
     178A      1.435052   179A      1.444802   180A      1.474694  
     181A      1.493470   182A      1.507180   183A      1.512050  
     184A      1.526132   185A      1.560999   186A      1.590907  
     187A      1.608690   188A      1.637798   189A      1.669668  
     190A      1.676872   191A      1.688971   192A      1.703642  
     193A      1.723992   194A      1.749382   195A      1.764488  
     196A      1.805056   197A      1.875644   198A      1.932499  
     199A      1.943559   200A      1.988119   201A      2.021457  
     202A      2.041067   203A      2.057615   204A      2.088980  
     205A      2.109012   206A      2.134827   207A      2.144691  
     208A      2.168064   209A      2.190013   210A      2.200831  
     211A      2.216639   212A      2.230835   213A      2.233842  
     214A      2.261857   215A      2.275791   216A      2.277908  
     217A      2.289441   218A      2.307724   219A      2.335727  
     220A      2.360722   221A      2.380606   222A      2.389129  
     223A      2.393845   224A      2.394751   225A      2.435250  
     226A      2.443969   227A      2.464973   228A      2.478449  
     229A      2.500005   230A      2.513731   231A      2.531805  
     232A      2.548995   233A      2.570239   234A      2.584748  
     235A      2.631368   236A      2.643084   237A      2.667571  
     238A      2.703104   239A      2.718903   240A      2.733050  
     241A      2.826841   242A      2.828008   243A      2.834768  
     244A      2.869902   245A      2.890032   246A      2.901595  
     247A      2.918610   248A      2.945250   249A      2.999167  
     250A      3.028084   251A      3.055330   252A      3.089853  
     253A      3.092367   254A      3.122744   255A      3.140051  
     256A      3.182022   257A      3.189030   258A      3.222014  
     259A      3.254214   260A      3.289289   261A      3.297890  
     262A      3.355840   263A      3.380241   264A      3.395693  
     265A      3.423689   266A      3.448399   267A      3.487268  
     268A      3.497515   269A      3.520729   270A      3.633684  
     271A      3.667017   272A      3.686566   273A      3.735667  
     274A      3.770196   275A      3.851248   276A      3.889351  
     277A      3.964519   278A      4.035625   279A      4.094877  
     280A      4.209463   281A      4.244250   282A      4.448521  
     283A      4.463267   284A      4.658546   285A      4.708142  
     286A      4.749965   287A      4.810859   288A      4.995061  
     289A      5.077178   290A      5.241503   291A      5.531358  
     292A      5.669140   293A      5.826884   294A      6.106790  
     295A      6.318336   296A      6.708449   297A      6.967988  
     298A     18.111207   299A     18.648006   300A     19.373761  
     301A     25.245703   302A     25.705081  

    Final Occupation by Irrep:
              A 
    DOCC [    18 ]

  @DF-RHF Final Energy:  -224.76234058478667

   => Energetics <=

    Nuclear Repulsion Energy =            166.6240564503272026
    One-Electron Energy =                -633.4992745760649768
    Two-Electron Energy =                 242.1128775409511036
    Total Energy =                       -224.7623405847866707

Computation Completed


Properties will be evaluated at   0.000000,   0.000000,   0.000000 [a0]

Properties computed using the SCF density matrix

  Nuclear Dipole Moment: [e a0]
     X:   162.5886      Y:  -104.5054      Z:    23.1563

  Electronic Dipole Moment: [e a0]
     X:  -162.9913      Y:   105.1370      Z:   -22.5767

  Dipole Moment: [e a0]
     X:    -0.4027      Y:     0.6317      Z:     0.5796     Total:     0.9472

  Dipole Moment: [D]
     X:    -1.0236      Y:     1.6055      Z:     1.4733     Total:     2.4075


*** tstop() called on ds1 at Mon Oct  4 13:49:27 2021
Module time:
	user time   =      18.66 seconds =       0.31 minutes
	system time =       0.33 seconds =       0.01 minutes
	total time  =          4 seconds =       0.07 minutes
Total time:
	user time   =      44.57 seconds =       0.74 minutes
	system time =       0.90 seconds =       0.02 minutes
	total time  =         10 seconds =       0.17 minutes

  //>>>>>>>>>>>>>>>>>>>>>>>>>>>>>>>>>>>//
  //            Monomer B HF           //
  //<<<<<<<<<<<<<<<<<<<<<<<<<<<<<<<<<<<//


*** tstart() called on ds1
*** at Mon Oct  4 13:49:27 2021

   => Loading Basis Set <=

    Name: AUG-CC-PVDZ
    Role: ORBITAL
    Keyword: BASIS
    atoms 1-2, 10-11 entry N          line   218 file /theoryfs2/ds/csargent/miniconda3/envs/cle/share/psi4/basis/aug-cc-pvdz.gbs 
    atoms 3-6, 12-15 entry H          line    40 file /theoryfs2/ds/csargent/miniconda3/envs/cle/share/psi4/basis/aug-cc-pvdz.gbs 
    atoms 7-9, 16-18 entry C          line   182 file /theoryfs2/ds/csargent/miniconda3/envs/cle/share/psi4/basis/aug-cc-pvdz.gbs 


         ---------------------------------------------------------
                                   SCF
               by Justin Turney, Rob Parrish, Andy Simmonett
                          and Daniel G. A. Smith
                              RHF Reference
                        6 Threads,   6675 MiB Core
         ---------------------------------------------------------

  ==> Geometry <==

    Molecular point group: c1
    Full point group: C1

    Geometry (in Bohr), charge = 0, multiplicity = 1:

       Center              X                  Y                   Z               Mass       
    ------------   -----------------  -----------------  -----------------  -----------------
      Gh(N)           6.279812100000    -4.253033720000     0.193138650000    14.003074004430
      Gh(N)           6.068707770000    -2.281256970000     1.805443170000    14.003074004430
      Gh(H)           3.668711560000    -5.646289410000    -1.966840010000     1.007825032230
      Gh(H)           0.690345210000    -2.375456940000    -0.428642360000     1.007825032230
      Gh(H)           3.359174420000     0.176506010000     3.092650170000     1.007825032230
      Gh(H)           7.352667820000    -1.994613110000     2.906807020000     1.007825032230
      Gh(C)           3.779525860000    -1.215084530000     1.768581720000    12.000000000000
      Gh(C)           2.382429980000    -2.555055380000     0.046076810000    12.000000000000
      Gh(C)           4.017714680000    -4.384104900000    -0.887618630000    12.000000000000
         N           -1.458616380000   -16.146969950000    19.051610740000    14.003074004430
         N           -1.669720710000   -14.175193200000    17.439306220000    14.003074004430
         H           -4.069716920000   -17.540225640000    21.211589400000     1.007825032230
         H           -7.048083280000   -14.269393180000    19.673391750000     1.007825032230
         H           -4.379254060000   -11.717430220000    16.152099220000     1.007825032230
         H           -0.385760660000   -13.888549340000    16.337942370000     1.007825032230
         C           -3.958902630000   -13.109020760000    17.476167670000    12.000000000000
         C           -5.355998510000   -14.448991620000    19.198672570000    12.000000000000
         C           -3.720713800000   -16.278041130000    20.132368010000    12.000000000000

  Running in c1 symmetry.

  Rotational constants: A =      0.02544  B =      0.00151  C =      0.00144 [cm^-1]
  Rotational constants: A =    762.61552  B =     45.35621  C =     43.18642 [MHz]
  Nuclear repulsion =  166.624056398965820

  Charge       = 0
  Multiplicity = 1
  Electrons    = 36
  Nalpha       = 18
  Nbeta        = 18

  ==> Algorithm <==

  SCF Algorithm Type is DF.
  DIIS enabled.
  MOM disabled.
  Fractional occupation disabled.
  Guess Type is SAD.
  Energy threshold   = 1.00e-10
  Density threshold  = 1.00e-10
  Integral threshold = 1.00e-12

  ==> Primary Basis <==

  Basis Set: AUG-CC-PVDZ
    Blend: AUG-CC-PVDZ
    Number of shells: 130
    Number of basis functions: 302
    Number of Cartesian functions: 322
    Spherical Harmonics?: true
    Max angular momentum: 2

   => Loading Basis Set <=

    Name: (AUG-CC-PVDZ AUX)
    Role: JKFIT
    Keyword: DF_BASIS_SCF
    atoms 1-2, 10-11 entry N          line   212 file /theoryfs2/ds/csargent/miniconda3/envs/cle/share/psi4/basis/aug-cc-pvdz-jkfit.gbs 
    atoms 3-6, 12-15 entry H          line    70 file /theoryfs2/ds/csargent/miniconda3/envs/cle/share/psi4/basis/aug-cc-pvdz-jkfit.gbs 
    atoms 7-9, 16-18 entry C          line   154 file /theoryfs2/ds/csargent/miniconda3/envs/cle/share/psi4/basis/aug-cc-pvdz-jkfit.gbs 

  ==> Integral Setup <==

  ==> DiskDFJK: Density-Fitted J/K Matrices <==

    J tasked:                  Yes
    K tasked:                  Yes
    wK tasked:                  No
    OpenMP threads:              6
    Integrals threads:           6
    Memory [MiB]:             5006
    Algorithm:                Core
    Integral Cache:           LOAD
    Schwarz Cutoff:          1E-12
    Fitting Condition:       1E-10

   => Auxiliary Basis Set <=

  Basis Set: (AUG-CC-PVDZ AUX)
    Blend: AUG-CC-PVDZ-JKFIT
    Number of shells: 376
    Number of basis functions: 1116
    Number of Cartesian functions: 1290
    Spherical Harmonics?: true
    Max angular momentum: 3

  Minimum eigenvalue in the overlap matrix is 3.0323359621E-05.
  Reciprocal condition number of the overlap matrix is 2.4864188090E-06.
    Using symmetric orthogonalization.

  ==> Pre-Iterations <==

  SCF Guess: Superposition of Atomic Densities via on-the-fly atomic UHF (no occupation information).

   -------------------------
    Irrep   Nso     Nmo    
   -------------------------
     A        302     302 
   -------------------------
    Total     302     302
   -------------------------

  ==> Iterations <==

                           Total Energy        Delta E     RMS |[F,P]|

   @DF-RHF iter SAD:  -224.72194801291056   -2.24722e+02   0.00000e+00 
   @DF-RHF iter   1:  -224.63549197561508    8.64560e-02   1.50472e-03 DIIS
   @DF-RHF iter   2:  -224.73984646302895   -1.04354e-01   6.88462e-04 DIIS
   @DF-RHF iter   3:  -224.76075522638422   -2.09088e-02   1.48626e-04 DIIS
   @DF-RHF iter   4:  -224.76213967002121   -1.38444e-03   6.05311e-05 DIIS
   @DF-RHF iter   5:  -224.76231802484222   -1.78355e-04   1.19894e-05 DIIS
   @DF-RHF iter   6:  -224.76233498231949   -1.69575e-05   4.96772e-06 DIIS
   @DF-RHF iter   7:  -224.76233893835732   -3.95604e-06   2.18806e-06 DIIS
   @DF-RHF iter   8:  -224.76233969909944   -7.60742e-07   1.01700e-06 DIIS
   @DF-RHF iter   9:  -224.76233986674171   -1.67642e-07   2.83302e-07 DIIS
   @DF-RHF iter  10:  -224.76233987556245   -8.82073e-09   8.55548e-08 DIIS
   @DF-RHF iter  11:  -224.76233987625218   -6.89738e-10   1.99715e-08 DIIS
   @DF-RHF iter  12:  -224.76233987629786   -4.56737e-11   5.81092e-09 DIIS
   @DF-RHF iter  13:  -224.76233987630243   -4.57590e-12   2.83098e-09 DIIS
   @DF-RHF iter  14:  -224.76233987630332   -8.81073e-13   9.75195e-10 DIIS
   @DF-RHF iter  15:  -224.76233987630272    5.96856e-13   4.15548e-10 DIIS
   @DF-RHF iter  16:  -224.76233987630357   -8.52651e-13   1.25997e-10 DIIS
   @DF-RHF iter  17:  -224.76233987630354    2.84217e-14   4.47776e-11 DIIS
  Energy and wave function converged.


  ==> Post-Iterations <==

    Orbital Energies [Eh]
    ---------------------

    Doubly Occupied:                                                      

       1A    -15.636223     2A    -15.592313     3A    -11.279894  
       4A    -11.237784     5A    -11.209891     6A     -1.386922  
       7A     -1.121901     8A     -1.066898     9A     -0.872768  
      10A     -0.837061    11A     -0.757292    12A     -0.645746  
      13A     -0.620834    14A     -0.609140    15A     -0.583920  
      16A     -0.461404    17A     -0.370721    18A     -0.346047  

    Virtual:                                                              

      19A      0.019927    20A      0.031064    21A      0.038430  
      22A      0.041795    23A      0.042782    24A      0.049405  
      25A      0.063412    26A      0.064575    27A      0.082069  
      28A      0.089186    29A      0.097370    30A      0.100958  
      31A      0.104017    32A      0.116631    33A      0.117167  
      34A      0.123022    35A      0.125615    36A      0.126079  
      37A      0.130362    38A      0.132017    39A      0.135854  
      40A      0.138551    41A      0.143245    42A      0.156661  
      43A      0.157599    44A      0.164292    45A      0.165292  
      46A      0.171154    47A      0.177617    48A      0.178930  
      49A      0.194019    50A      0.196531    51A      0.200019  
      52A      0.204792    53A      0.206187    54A      0.221268  
      55A      0.224083    56A      0.226876    57A      0.234100  
      58A      0.240270    59A      0.243664    60A      0.244973  
      61A      0.262601    62A      0.269492    63A      0.271159  
      64A      0.279127    65A      0.301010    66A      0.320339  
      67A      0.325208    68A      0.338400    69A      0.352595  
      70A      0.355697    71A      0.365081    72A      0.371229  
      73A      0.374925    74A      0.382047    75A      0.396995  
      76A      0.402911    77A      0.414985    78A      0.425499  
      79A      0.430126    80A      0.433310    81A      0.440069  
      82A      0.440543    83A      0.443842    84A      0.453435  
      85A      0.454285    86A      0.455917    87A      0.459853  
      88A      0.460316    89A      0.478767    90A      0.498580  
      91A      0.508079    92A      0.508729    93A      0.517787  
      94A      0.521945    95A      0.531526    96A      0.536345  
      97A      0.542029    98A      0.557724    99A      0.567115  
     100A      0.570154   101A      0.574962   102A      0.586376  
     103A      0.590585   104A      0.593470   105A      0.602449  
     106A      0.611728   107A      0.619575   108A      0.621042  
     109A      0.631837   110A      0.646152   111A      0.655456  
     112A      0.676195   113A      0.689133   114A      0.698045  
     115A      0.700413   116A      0.706208   117A      0.717750  
     118A      0.721708   119A      0.725136   120A      0.733923  
     121A      0.744111   122A      0.747720   123A      0.758602  
     124A      0.773334   125A      0.781546   126A      0.788112  
     127A      0.796386   128A      0.812762   129A      0.819268  
     130A      0.828543   131A      0.838299   132A      0.848565  
     133A      0.850292   134A      0.853384   135A      0.869417  
     136A      0.879293   137A      0.881482   138A      0.888723  
     139A      0.894431   140A      0.906999   141A      0.914552  
     142A      0.925386   143A      0.942590   144A      0.950437  
     145A      0.978223   146A      0.984853   147A      0.995622  
     148A      1.011150   149A      1.022502   150A      1.028705  
     151A      1.046635   152A      1.050063   153A      1.066559  
     154A      1.069427   155A      1.079489   156A      1.100927  
     157A      1.106519   158A      1.128079   159A      1.134434  
     160A      1.150273   161A      1.157137   162A      1.164749  
     163A      1.175185   164A      1.183405   165A      1.219954  
     166A      1.220815   167A      1.235410   168A      1.266403  
     169A      1.269566   170A      1.292139   171A      1.303349  
     172A      1.311384   173A      1.313639   174A      1.339100  
     175A      1.366040   176A      1.380293   177A      1.401090  
     178A      1.433430   179A      1.443134   180A      1.474805  
     181A      1.491657   182A      1.505468   183A      1.512040  
     184A      1.526184   185A      1.561052   186A      1.591054  
     187A      1.608699   188A      1.637445   189A      1.669708  
     190A      1.675228   191A      1.687391   192A      1.703770  
     193A      1.723980   194A      1.749352   195A      1.764427  
     196A      1.805056   197A      1.875634   198A      1.932556  
     199A      1.943559   200A      1.988070   201A      2.021453  
     202A      2.039479   203A      2.057644   204A      2.088840  
     205A      2.107388   206A      2.133227   207A      2.144721  
     208A      2.166507   209A      2.190034   210A      2.200833  
     211A      2.215007   212A      2.230470   213A      2.232231  
     214A      2.260286   215A      2.275822   216A      2.276297  
     217A      2.287747   218A      2.307654   219A      2.334084  
     220A      2.360719   221A      2.378991   222A      2.389197  
     223A      2.392801   224A      2.394090   225A      2.435253  
     226A      2.442247   227A      2.464968   228A      2.477184  
     229A      2.498265   230A      2.512053   231A      2.531811  
     232A      2.547170   233A      2.570234   234A      2.584746  
     235A      2.629797   236A      2.643016   237A      2.665918  
     238A      2.701442   239A      2.717422   240A      2.733046  
     241A      2.826402   242A      2.826851   243A      2.834764  
     244A      2.868256   245A      2.888388   246A      2.901601  
     247A      2.918600   248A      2.943820   249A      2.999189  
     250A      3.026457   251A      3.055385   252A      3.088255  
     253A      3.092435   254A      3.122873   255A      3.138532  
     256A      3.180447   257A      3.188936   258A      3.222020  
     259A      3.252622   260A      3.287667   261A      3.297883  
     262A      3.354253   263A      3.380285   264A      3.394058  
     265A      3.422027   266A      3.446772   267A      3.485629  
     268A      3.495835   269A      3.520746   270A      3.632051  
     271A      3.665390   272A      3.686566   273A      3.734048  
     274A      3.768532   275A      3.849572   276A      3.889361  
     277A      3.962784   278A      4.033974   279A      4.093234  
     280A      4.209576   281A      4.242568   282A      4.446873  
     283A      4.463260   284A      4.656927   285A      4.706471  
     286A      4.748360   287A      4.809213   288A      4.993287  
     289A      5.075273   290A      5.239885   291A      5.529684  
     292A      5.667450   293A      5.825245   294A      6.105145  
     295A      6.316692   296A      6.706817   297A      6.966334  
     298A     18.109555   299A     18.646303   300A     19.371985  
     301A     25.244050   302A     25.703422  

    Final Occupation by Irrep:
              A 
    DOCC [    18 ]

  @DF-RHF Final Energy:  -224.76233987630354

   => Energetics <=

    Nuclear Repulsion Energy =            166.6240563989658199
    One-Electron Energy =                -633.4992755675079934
    Two-Electron Energy =                 242.1128792922386310
    Total Energy =                       -224.7623398763035425

Computation Completed


Properties will be evaluated at   0.000000,   0.000000,   0.000000 [a0]

Properties computed using the SCF density matrix

  Nuclear Dipole Moment: [e a0]
     X:  -115.9949      Y:  -532.6871      Z:   669.6547

  Electronic Dipole Moment: [e a0]
     X:   115.5922      Y:   533.3187      Z:  -670.2343

  Dipole Moment: [e a0]
     X:    -0.4027      Y:     0.6317      Z:    -0.5796     Total:     0.9472

  Dipole Moment: [D]
     X:    -1.0235      Y:     1.6055      Z:    -1.4733     Total:     2.4075


*** tstop() called on ds1 at Mon Oct  4 13:49:31 2021
Module time:
	user time   =      18.79 seconds =       0.31 minutes
	system time =       0.35 seconds =       0.01 minutes
	total time  =          4 seconds =       0.07 minutes
Total time:
	user time   =      63.39 seconds =       1.06 minutes
	system time =       1.25 seconds =       0.02 minutes
	total time  =         14 seconds =       0.23 minutes
  Constructing Basis Sets for SAPT...

   => Loading Basis Set <=

    Name: (AUG-CC-PVDZ AUX)
    Role: RIFIT
    Keyword: DF_BASIS_SAPT
    atoms 1-2, 10-11 entry N          line   158 file /theoryfs2/ds/csargent/miniconda3/envs/cle/share/psi4/basis/aug-cc-pvdz-ri.gbs 
    atoms 3-6, 12-15 entry H          line    30 file /theoryfs2/ds/csargent/miniconda3/envs/cle/share/psi4/basis/aug-cc-pvdz-ri.gbs 
    atoms 7-9, 16-18 entry C          line   112 file /theoryfs2/ds/csargent/miniconda3/envs/cle/share/psi4/basis/aug-cc-pvdz-ri.gbs 


  //>>>>>>>>>>>>>>>>>>>>>>>>>>>>>>>>>>>//
  //               SAPT0               //
  //<<<<<<<<<<<<<<<<<<<<<<<<<<<<<<<<<<<//


*** tstart() called on ds1
*** at Mon Oct  4 13:49:31 2021

        SAPT0  
    Ed Hohenstein
     6 June 2009

      Orbital Information
  --------------------------
    NSO        =       302
    NMO        =       302
    NRI        =       904
    NOCC A     =        18
    NOCC B     =        18
    FOCC A     =         5
    FOCC B     =         5
    NVIR A     =       284
    NVIR B     =       284

    Elst10,r            =     0.000012135898 [Eh]
    Exch10              =     0.000000001079 [Eh]
    Exch10 (S^2)        =     0.000000001079 [Eh]

    Iter     Energy [mEh]          dE [mEh]         Residual      Time [s]
       1      -0.00060567       0.000605669       0.228469998             0
       2      -0.00055279      -0.000052882       0.054925809             0
       3      -0.00058955       0.000036763       0.029473401             0
       4      -0.00060474       0.000015190       0.004777314             0
       5      -0.00060296      -0.000001783       0.002233901             0
       6      -0.00060268      -0.000000276       0.000901208             1
       7      -0.00060286       0.000000183       0.000408522             1
       8      -0.00060289       0.000000025       0.000163532             1
       9      -0.00060288      -0.000000014       0.000041124             1
      10      -0.00060287      -0.000000004       0.000012755             1
      11      -0.00060287       0.000000001       0.000004831             1
      12      -0.00060287       0.000000001       0.000001479             1
      13      -0.00060287      -0.000000000       0.000000416             1

    CHF Iterations converged


    Iter     Energy [mEh]          dE [mEh]         Residual      Time [s]
       1      -0.00013040       0.000130403       0.117027524             1
       2      -0.00012054      -0.000009867       0.031061304             1
       3      -0.00012980       0.000009268       0.016008376             1
       4      -0.00013362       0.000003814       0.003911913             1
       5      -0.00013292      -0.000000696       0.002197105             1
       6      -0.00013279      -0.000000129       0.000751903             1
       7      -0.00013287       0.000000080       0.000248331             1
       8      -0.00013288       0.000000009       0.000099581             2
       9      -0.00013288      -0.000000002       0.000030375             2
      10      -0.00013288      -0.000000002       0.000009355             2
      11      -0.00013288       0.000000001       0.000004017             2
      12      -0.00013288       0.000000000       0.000001238             2
      13      -0.00013288      -0.000000000       0.000000264             2

    CHF Iterations converged

    Ind20,r (A<-B)      =    -0.000000602873 [Eh]
    Ind20,r (B<-A)      =    -0.000000132878 [Eh]
    Ind20,r             =    -0.000000735751 [Eh]
    Exch-Ind20,r (A<-B) =     0.000000001681 [Eh]
    Exch-Ind20,r (B<-A) =     0.000000000347 [Eh]
    Exch-Ind20,r        =     0.000000002029 [Eh]
    Disp20              =    -0.000007903496 [Eh]
    Disp20 (SS)         =    -0.000003951748 [Eh]
    Disp20 (OS)         =    -0.000003951748 [Eh]
    Exch-Disp20         =     0.000000000113 [Eh]
    Exch-Disp20 (SS)    =     0.000000000090 [Eh]
    Exch-Disp20 (OS)    =     0.000000000022 [Eh]

    SAPT Results 
  --------------------------------------------------------------------------------------------------------
    Electrostatics                  0.01213590 [mEh]       0.00761539 [kcal/mol]       0.03186280 [kJ/mol]
      Elst10,r                      0.01213590 [mEh]       0.00761539 [kcal/mol]       0.03186280 [kJ/mol]

    Exchange                        0.00000108 [mEh]       0.00000068 [kcal/mol]       0.00000283 [kJ/mol]
      Exch10                        0.00000108 [mEh]       0.00000068 [kcal/mol]       0.00000283 [kJ/mol]
      Exch10(S^2)                   0.00000108 [mEh]       0.00000068 [kcal/mol]       0.00000283 [kJ/mol]

    Induction                      -0.00066485 [mEh]      -0.00041720 [kcal/mol]      -0.00174558 [kJ/mol]
      Ind20,r                      -0.00073575 [mEh]      -0.00046169 [kcal/mol]      -0.00193171 [kJ/mol]
      Exch-Ind20,r                  0.00000203 [mEh]       0.00000127 [kcal/mol]       0.00000533 [kJ/mol]
      delta HF,r (2)                0.00006887 [mEh]       0.00004321 [kcal/mol]       0.00018081 [kJ/mol]

    Dispersion                     -0.00790338 [mEh]      -0.00495945 [kcal/mol]      -0.02075033 [kJ/mol]
      Disp20                       -0.00790350 [mEh]      -0.00495952 [kcal/mol]      -0.02075062 [kJ/mol]
      Exch-Disp20                   0.00000011 [mEh]       0.00000007 [kcal/mol]       0.00000030 [kJ/mol]
      Disp20 (SS)                  -0.00395175 [mEh]      -0.00247976 [kcal/mol]      -0.01037531 [kJ/mol]
      Disp20 (OS)                  -0.00395175 [mEh]      -0.00247976 [kcal/mol]      -0.01037531 [kJ/mol]
      Exch-Disp20 (SS)              0.00000009 [mEh]       0.00000006 [kcal/mol]       0.00000024 [kJ/mol]
      Exch-Disp20 (OS)              0.00000002 [mEh]       0.00000001 [kcal/mol]       0.00000006 [kJ/mol]

  Total HF                          0.01147212 [mEh]       0.00719887 [kcal/mol]       0.03012005 [kJ/mol]
  Total SAPT0                       0.00356874 [mEh]       0.00223942 [kcal/mol]       0.00936972 [kJ/mol]

  Special recipe for scaled SAPT0 (see Manual):
    Electrostatics sSAPT0           0.01213590 [mEh]       0.00761539 [kcal/mol]       0.03186280 [kJ/mol]
    Exchange sSAPT0                 0.00000108 [mEh]       0.00000068 [kcal/mol]       0.00000283 [kJ/mol]
    Induction sSAPT0               -0.00066485 [mEh]      -0.00041720 [kcal/mol]      -0.00174558 [kJ/mol]
    Dispersion sSAPT0              -0.00790338 [mEh]      -0.00495945 [kcal/mol]      -0.02075033 [kJ/mol]
  Total sSAPT0                      0.00356874 [mEh]       0.00223942 [kcal/mol]       0.00936972 [kJ/mol]
  --------------------------------------------------------------------------------------------------------

*** tstop() called on ds1 at Mon Oct  4 13:49:41 2021
Module time:
	user time   =      47.17 seconds =       0.79 minutes
	system time =       4.25 seconds =       0.07 minutes
	total time  =         10 seconds =       0.17 minutes
Total time:
	user time   =     111.11 seconds =       1.85 minutes
	system time =       5.52 seconds =       0.09 minutes
	total time  =         24 seconds =       0.40 minutes


Warning! sapt0 does not have an associated derived wavefunction.The returned wavefunction is the dimer SCF wavefunction.


    Psi4 stopped on: Monday, 04 October 2021 01:49PM
    Psi4 wall time for execution: 0:00:23.41

*** Psi4 exiting successfully. Buy a developer a beer!
