
    -----------------------------------------------------------------------
          Psi4: An Open-Source Ab Initio Electronic Structure Package
                               Psi4 1.4rc3 

                         Git: Rev {HEAD} 080dba6 


    D. G. A. Smith, L. A. Burns, A. C. Simmonett, R. M. Parrish,
    M. C. Schieber, R. Galvelis, P. Kraus, H. Kruse, R. Di Remigio,
    A. Alenaizan, A. M. James, S. Lehtola, J. P. Misiewicz, M. Scheurer,
    R. A. Shaw, J. B. Schriber, Y. Xie, Z. L. Glick, D. A. Sirianni,
    J. S. O'Brien, J. M. Waldrop, A. Kumar, E. G. Hohenstein,
    B. P. Pritchard, B. R. Brooks, H. F. Schaefer III, A. Yu. Sokolov,
    K. Patkowski, A. E. DePrince III, U. Bozkaya, R. A. King,
    F. A. Evangelista, J. M. Turney, T. D. Crawford, C. D. Sherrill,
    J. Chem. Phys. 152(18) 184108 (2020). https://doi.org/10.1063/5.0006002

                            Additional Code Authors
    E. T. Seidl, C. L. Janssen, E. F. Valeev, M. L. Leininger,
    J. F. Gonthier, R. M. Richard, H. R. McAlexander, M. Saitow, X. Wang,
    P. Verma, and M. H. Lechner

             Previous Authors, Complete List of Code Contributors,
                       and Citations for Specific Modules
    https://github.com/psi4/psi4/blob/master/codemeta.json
    https://github.com/psi4/psi4/graphs/contributors
    http://psicode.org/psi4manual/master/introduction.html#citing-psifour

    -----------------------------------------------------------------------


    Psi4 started on: Monday, 04 October 2021 03:57PM

    Process ID: 14298
    Host:       ds1
    PSIDATADIR: /theoryfs2/ds/csargent/miniconda3/envs/cle/share/psi4
    Memory:     500.0 MiB
    Threads:    6
    
  ==> Input File <==

--------------------------------------------------------------------------
# PSI4 file produced by CrystaLattE

# Generated from:               pyrazole.xyz
# Psithon input for N-mer:      2mer-0+83
# Number of atoms per monomer:  [9, 9]
# Number of replicas:           1
# COM priority:                 6.062359686881e-05
# Minimum COM separations:      13.471 
# Separation priority:          1.387230005717e-04
# Minimum monomer separations:  10.222 
# Cutoff priority:              7.181215594857e-06
# Nuclear repulsion energy:     384.25622048585717

memory 7 GB

molecule Dimer_0_83 {
  N            6.27981210      -4.25303372       0.19313865 
  N            6.06870777      -2.28125697       1.80544317 
  H            3.66871156      -5.64628941      -1.96684001 
  H            0.69034521      -2.37545694      -0.42864236 
  H            3.35917442       0.17650601       3.09265017 
  H            7.35266782      -1.99461311       2.90680702 
  C            3.77952586      -1.21508453       1.76858172 
  C            2.38242998      -2.55505538       0.04607681 
  C            4.01771468      -4.38410490      -0.88761863 
--
  N           -4.94029013      21.49448368       4.85777613 
  N           -4.82142787      19.45657665       6.39494984 
  H           -2.26712739      23.89539365       4.13974577 
  H            0.62750917      21.45285491       6.89488328 
  H           -2.30891491      17.73980589       8.79951959 
  H           -6.28383608      18.64659959       6.78071517 
  C           -2.53859146      19.12640098       7.42399869 
  C           -1.05559903      21.05607319       6.53407622 
  C           -2.61690436      22.44124101       4.94237828 
units = au
no_com
no_reorient
}

set {
  e_convergence 10
  d_convergence 10
  scf_type df
  mp2_type df
  cc_type df
  freeze_core true
}

energy('sapt0/aug-cc-pvdz')

--------------------------------------------------------------------------

  Memory set to   6.519 GiB by Python driver.

Scratch directory: /scratch/csargent/psi4.7158.66302/

Scratch directory: /scratch/csargent/psi4.7158.66302/

  //>>>>>>>>>>>>>>>>>>>>>>>>>>>>>>>>>>>//
  //              Dimer HF             //
  //<<<<<<<<<<<<<<<<<<<<<<<<<<<<<<<<<<<//


*** tstart() called on ds1
*** at Mon Oct  4 15:57:31 2021

   => Loading Basis Set <=

    Name: AUG-CC-PVDZ
    Role: ORBITAL
    Keyword: BASIS
    atoms 1-2, 10-11 entry N          line   218 file /theoryfs2/ds/csargent/miniconda3/envs/cle/share/psi4/basis/aug-cc-pvdz.gbs 
    atoms 3-6, 12-15 entry H          line    40 file /theoryfs2/ds/csargent/miniconda3/envs/cle/share/psi4/basis/aug-cc-pvdz.gbs 
    atoms 7-9, 16-18 entry C          line   182 file /theoryfs2/ds/csargent/miniconda3/envs/cle/share/psi4/basis/aug-cc-pvdz.gbs 


         ---------------------------------------------------------
                                   SCF
               by Justin Turney, Rob Parrish, Andy Simmonett
                          and Daniel G. A. Smith
                              RHF Reference
                        6 Threads,   6675 MiB Core
         ---------------------------------------------------------

  ==> Geometry <==

    Molecular point group: c1
    Full point group: C1

    Geometry (in Bohr), charge = 0, multiplicity = 1:

       Center              X                  Y                   Z               Mass       
    ------------   -----------------  -----------------  -----------------  -----------------
         N            6.279812100000    -4.253033720000     0.193138650000    14.003074004430
         N            6.068707770000    -2.281256970000     1.805443170000    14.003074004430
         H            3.668711560000    -5.646289410000    -1.966840010000     1.007825032230
         H            0.690345210000    -2.375456940000    -0.428642360000     1.007825032230
         H            3.359174420000     0.176506010000     3.092650170000     1.007825032230
         H            7.352667820000    -1.994613110000     2.906807020000     1.007825032230
         C            3.779525860000    -1.215084530000     1.768581720000    12.000000000000
         C            2.382429980000    -2.555055380000     0.046076810000    12.000000000000
         C            4.017714680000    -4.384104900000    -0.887618630000    12.000000000000
         N           -4.940290130000    21.494483680000     4.857776130000    14.003074004430
         N           -4.821427870000    19.456576650000     6.394949840000    14.003074004430
         H           -2.267127390000    23.895393650000     4.139745770000     1.007825032230
         H            0.627509170000    21.452854910000     6.894883280000     1.007825032230
         H           -2.308914910000    17.739805890000     8.799519590000     1.007825032230
         H           -6.283836080000    18.646599590000     6.780715170000     1.007825032230
         C           -2.538591460000    19.126400980000     7.423998690000    12.000000000000
         C           -1.055599030000    21.056073190000     6.534076220000    12.000000000000
         C           -2.616904360000    22.441241010000     4.942378280000    12.000000000000

  Running in c1 symmetry.

  Rotational constants: A =      0.03411  B =      0.00180  C =      0.00172 [cm^-1]
  Rotational constants: A =   1022.53988  B =     53.95562  C =     51.66517 [MHz]
  Nuclear repulsion =  384.256220502932308

  Charge       = 0
  Multiplicity = 1
  Electrons    = 72
  Nalpha       = 36
  Nbeta        = 36

  ==> Algorithm <==

  SCF Algorithm Type is DF.
  DIIS enabled.
  MOM disabled.
  Fractional occupation disabled.
  Guess Type is SAD.
  Energy threshold   = 1.00e-10
  Density threshold  = 1.00e-10
  Integral threshold = 1.00e-12

  ==> Primary Basis <==

  Basis Set: AUG-CC-PVDZ
    Blend: AUG-CC-PVDZ
    Number of shells: 130
    Number of basis functions: 302
    Number of Cartesian functions: 322
    Spherical Harmonics?: true
    Max angular momentum: 2

   => Loading Basis Set <=

    Name: (AUG-CC-PVDZ AUX)
    Role: JKFIT
    Keyword: DF_BASIS_SCF
    atoms 1-2, 10-11 entry N          line   212 file /theoryfs2/ds/csargent/miniconda3/envs/cle/share/psi4/basis/aug-cc-pvdz-jkfit.gbs 
    atoms 3-6, 12-15 entry H          line    70 file /theoryfs2/ds/csargent/miniconda3/envs/cle/share/psi4/basis/aug-cc-pvdz-jkfit.gbs 
    atoms 7-9, 16-18 entry C          line   154 file /theoryfs2/ds/csargent/miniconda3/envs/cle/share/psi4/basis/aug-cc-pvdz-jkfit.gbs 

  ==> Integral Setup <==

  ==> DiskDFJK: Density-Fitted J/K Matrices <==

    J tasked:                  Yes
    K tasked:                  Yes
    wK tasked:                  No
    OpenMP threads:              6
    Integrals threads:           6
    Memory [MiB]:             5006
    Algorithm:                Core
    Integral Cache:           SAVE
    Schwarz Cutoff:          1E-12
    Fitting Condition:       1E-10

   => Auxiliary Basis Set <=

  Basis Set: (AUG-CC-PVDZ AUX)
    Blend: AUG-CC-PVDZ-JKFIT
    Number of shells: 376
    Number of basis functions: 1116
    Number of Cartesian functions: 1290
    Spherical Harmonics?: true
    Max angular momentum: 3

  Minimum eigenvalue in the overlap matrix is 3.0293682942E-05.
  Reciprocal condition number of the overlap matrix is 2.4841432330E-06.
    Using symmetric orthogonalization.

  ==> Pre-Iterations <==

  SCF Guess: Superposition of Atomic Densities via on-the-fly atomic UHF (no occupation information).

   -------------------------
    Irrep   Nso     Nmo    
   -------------------------
     A        302     302 
   -------------------------
    Total     302     302
   -------------------------

  ==> Iterations <==

                           Total Energy        Delta E     RMS |[F,P]|

   @DF-RHF iter SAD:  -449.44445657825838   -4.49444e+02   0.00000e+00 
   @DF-RHF iter   1:  -449.27086865667684    1.73588e-01   2.12850e-03 DIIS
   @DF-RHF iter   2:  -449.47964743014876   -2.08779e-01   9.74380e-04 DIIS
   @DF-RHF iter   3:  -449.52153385052037   -4.18864e-02   2.10257e-04 DIIS
   @DF-RHF iter   4:  -449.52430529726382   -2.77145e-03   8.55368e-05 DIIS
   @DF-RHF iter   5:  -449.52466173652874   -3.56439e-04   1.69220e-05 DIIS
   @DF-RHF iter   6:  -449.52469560613184   -3.38696e-05   7.00721e-06 DIIS
   @DF-RHF iter   7:  -449.52470352189573   -7.91576e-06   3.03999e-06 DIIS
   @DF-RHF iter   8:  -449.52470501627312   -1.49438e-06   1.43467e-06 DIIS
   @DF-RHF iter   9:  -449.52470534490982   -3.28637e-07   3.98685e-07 DIIS
   @DF-RHF iter  10:  -449.52470536222398   -1.73142e-08   1.21871e-07 DIIS
   @DF-RHF iter  11:  -449.52470536361011   -1.38613e-09   2.83335e-08 DIIS
   @DF-RHF iter  12:  -449.52470536370271   -9.25979e-11   8.25523e-09 DIIS
   @DF-RHF iter  13:  -449.52470536371169   -8.98126e-12   4.03905e-09 DIIS
   @DF-RHF iter  14:  -449.52470536371345   -1.76215e-12   1.39949e-09 DIIS
   @DF-RHF iter  15:  -449.52470536371453   -1.08002e-12   5.93771e-10 DIIS
   @DF-RHF iter  16:  -449.52470536371447    5.68434e-14   1.79590e-10 DIIS
   @DF-RHF iter  17:  -449.52470536371459   -1.13687e-13   6.36045e-11 DIIS
  Energy and wave function converged.


  ==> Post-Iterations <==

    Orbital Energies [Eh]
    ---------------------

    Doubly Occupied:                                                      

       1A    -15.637477     2A    -15.636799     3A    -15.593499  
       4A    -15.592864     5A    -11.281184     6A    -11.280500  
       7A    -11.238933     8A    -11.238313     9A    -11.211145  
      10A    -11.210465    11A     -1.388233    12A     -1.387489  
      13A     -1.123113    14A     -1.122463    15A     -1.068178  
      16A     -1.067473    17A     -0.873973    18A     -0.873325  
      19A     -0.838260    20A     -0.837619    21A     -0.758566  
      22A     -0.757907    23A     -0.646962    24A     -0.646302  
      25A     -0.622054    26A     -0.621393    27A     -0.610413  
      28A     -0.609706    29A     -0.585169    30A     -0.584512  
      31A     -0.462598    32A     -0.461945    33A     -0.371916  
      34A     -0.371263    35A     -0.347307    36A     -0.346620  

    Virtual:                                                              

      37A      0.026140    38A      0.031896    39A      0.041220  
      40A      0.041913    41A      0.047194    42A      0.049531  
      43A      0.061166    44A      0.064574    45A      0.099028  
      46A      0.100404    47A      0.102771    48A      0.103540  
      49A      0.116087    50A      0.116743    51A      0.124896  
      52A      0.125743    53A      0.129246    54A      0.133972  
      55A      0.137085    56A      0.137826    57A      0.138863  
      58A      0.144003    59A      0.154862    60A      0.157961  
      61A      0.163588    62A      0.164193    63A      0.170124  
      64A      0.170709    65A      0.177034    66A      0.178119  
      67A      0.194203    68A      0.196354    69A      0.203394  
      70A      0.204490    71A      0.205585    72A      0.206347  
      73A      0.238851    74A      0.240015    75A      0.242764  
      76A      0.243059    77A      0.243857    78A      0.244810  
      79A      0.269957    80A      0.270694    81A      0.277676  
      82A      0.278892    83A      0.300013    84A      0.300611  
      85A      0.323912    86A      0.324708    87A      0.350836  
      88A      0.351915    89A      0.353942    90A      0.355719  
      91A      0.373589    92A      0.374438    93A      0.394232  
      94A      0.396368    95A      0.401500    96A      0.402597  
      97A      0.413784    98A      0.414545    99A      0.430812  
     100A      0.431694   101A      0.442325   102A      0.443018  
     103A      0.452249   104A      0.452842   105A      0.458641  
     106A      0.459254   107A      0.477416   108A      0.478230  
     109A      0.497306   110A      0.498177   111A      0.507726  
     112A      0.508153   113A      0.520399   114A      0.521758  
     115A      0.539601   116A      0.542754   117A      0.573201  
     118A      0.573887   119A      0.585094   120A      0.585849  
     121A      0.589296   122A      0.590057   123A      0.601123  
     124A      0.601826   125A      0.619723   126A      0.620443  
     127A      0.644852   128A      0.645570   129A      0.654052  
     130A      0.654944   131A      0.674761   132A      0.676095  
     133A      0.696801   134A      0.697476   135A      0.699145  
     136A      0.699893   137A      0.720457   138A      0.721125  
     139A      0.723866   140A      0.724517   141A      0.746504  
     142A      0.747137   143A      0.757428   144A      0.758054  
     145A      0.772089   146A      0.772812   147A      0.780233  
     148A      0.780939   149A      0.827337   150A      0.828005  
     151A      0.836978   152A      0.837665   153A      0.847101  
     154A      0.848283   155A      0.880143   156A      0.880905  
     157A      0.887550   158A      0.888308   159A      0.905739  
     160A      0.906394   161A      0.923572   162A      0.924264  
     163A      0.941388   164A      0.942097   165A      0.977011  
     166A      0.977685   167A      0.983619   168A      0.984283  
     169A      1.010040   170A      1.010648   171A      1.045430  
     172A      1.046047   173A      1.065241   174A      1.065947  
     175A      1.099585   176A      1.100346   177A      1.126796  
     178A      1.127728   179A      1.132914   180A      1.134072  
     181A      1.149060   182A      1.149689   183A      1.173971  
     184A      1.174621   185A      1.219334   186A      1.220130  
     187A      1.268359   188A      1.268995   189A      1.302203  
     190A      1.302810   191A      1.310232   192A      1.310834  
     193A      1.364594   194A      1.365289   195A      1.399834  
     196A      1.400502   197A      1.473471   198A      1.474220  
     199A      1.510795   200A      1.511471   201A      1.524923  
     202A      1.525556   203A      1.559748   204A      1.560434  
     205A      1.589534   206A      1.590355   207A      1.607320  
     208A      1.608460   209A      1.636207   210A      1.636951  
     211A      1.668059   212A      1.669343   213A      1.701742  
     214A      1.704180   215A      1.722721   216A      1.723497  
     217A      1.747783   218A      1.749416   219A      1.763132  
     220A      1.763892   221A      1.803814   222A      1.804506  
     223A      1.874307   224A      1.875019   225A      1.930979  
     226A      1.932317   227A      1.942344   228A      1.942996  
     229A      1.986938   230A      1.987527   231A      2.020241  
     232A      2.020951   233A      2.056427   234A      2.057059  
     235A      2.087543   236A      2.088268   237A      2.143475  
     238A      2.144143   239A      2.188728   240A      2.189426  
     241A      2.199614   242A      2.200273   243A      2.229224  
     244A      2.229900   245A      2.274632   246A      2.275283  
     247A      2.306392   248A      2.307105   249A      2.359438  
     250A      2.360152   251A      2.387855   252A      2.388754  
     253A      2.392454   254A      2.393279   255A      2.433992  
     256A      2.434700   257A      2.463713   258A      2.464384  
     259A      2.530533   260A      2.531269   261A      2.568975  
     262A      2.569671   263A      2.583569   264A      2.584181  
     265A      2.641702   266A      2.642406   267A      2.731745  
     268A      2.732451   269A      2.825607   270A      2.826309  
     271A      2.833498   272A      2.834254   273A      2.900327  
     274A      2.901061   275A      2.917311   276A      2.918016  
     277A      2.997957   278A      2.998601   279A      3.054066  
     280A      3.054753   281A      3.091088   282A      3.092163  
     283A      3.121271   284A      3.122797   285A      3.187854  
     286A      3.188423   287A      3.220802   288A      3.221446  
     289A      3.296728   290A      3.297322   291A      3.378964  
     292A      3.379732   293A      3.519548   294A      3.520214  
     295A      3.685076   296A      3.686013   297A      3.887948  
     298A      3.889078   299A      4.208088   300A      4.209073  
     301A      4.461787   302A      4.462686  

    Final Occupation by Irrep:
              A 
    DOCC [    36 ]

  @DF-RHF Final Energy:  -449.52470536371459

   => Energetics <=

    Nuclear Repulsion Energy =            384.2562205029323081
    One-Electron Energy =               -1368.9499747251863937
    Two-Electron Energy =                 535.1690488585394405
    Total Energy =                       -449.5247053637145882

Computation Completed


Properties will be evaluated at   0.000000,   0.000000,   0.000000 [a0]

Properties computed using the SCF density matrix

  Nuclear Dipole Moment: [e a0]
     X:    46.7576      Y:   639.6290      Z:   241.9430

  Electronic Dipole Moment: [e a0]
     X:   -46.8700      Y:  -639.5583      Z:  -240.6649

  Dipole Moment: [e a0]
     X:    -0.1124      Y:     0.0707      Z:     1.2781     Total:     1.2850

  Dipole Moment: [D]
     X:    -0.2858      Y:     0.1796      Z:     3.2485     Total:     3.2660


*** tstop() called on ds1 at Mon Oct  4 15:57:36 2021
Module time:
	user time   =      24.97 seconds =       0.42 minutes
	system time =       0.65 seconds =       0.01 minutes
	total time  =          5 seconds =       0.08 minutes
Total time:
	user time   =      24.97 seconds =       0.42 minutes
	system time =       0.65 seconds =       0.01 minutes
	total time  =          5 seconds =       0.08 minutes

  //>>>>>>>>>>>>>>>>>>>>>>>>>>>>>>>>>>>//
  //            Monomer A HF           //
  //<<<<<<<<<<<<<<<<<<<<<<<<<<<<<<<<<<<//


*** tstart() called on ds1
*** at Mon Oct  4 15:57:36 2021

   => Loading Basis Set <=

    Name: AUG-CC-PVDZ
    Role: ORBITAL
    Keyword: BASIS
    atoms 1-2, 10-11 entry N          line   218 file /theoryfs2/ds/csargent/miniconda3/envs/cle/share/psi4/basis/aug-cc-pvdz.gbs 
    atoms 3-6, 12-15 entry H          line    40 file /theoryfs2/ds/csargent/miniconda3/envs/cle/share/psi4/basis/aug-cc-pvdz.gbs 
    atoms 7-9, 16-18 entry C          line   182 file /theoryfs2/ds/csargent/miniconda3/envs/cle/share/psi4/basis/aug-cc-pvdz.gbs 


         ---------------------------------------------------------
                                   SCF
               by Justin Turney, Rob Parrish, Andy Simmonett
                          and Daniel G. A. Smith
                              RHF Reference
                        6 Threads,   6675 MiB Core
         ---------------------------------------------------------

  ==> Geometry <==

    Molecular point group: c1
    Full point group: C1

    Geometry (in Bohr), charge = 0, multiplicity = 1:

       Center              X                  Y                   Z               Mass       
    ------------   -----------------  -----------------  -----------------  -----------------
         N            6.279812100000    -4.253033720000     0.193138650000    14.003074004430
         N            6.068707770000    -2.281256970000     1.805443170000    14.003074004430
         H            3.668711560000    -5.646289410000    -1.966840010000     1.007825032230
         H            0.690345210000    -2.375456940000    -0.428642360000     1.007825032230
         H            3.359174420000     0.176506010000     3.092650170000     1.007825032230
         H            7.352667820000    -1.994613110000     2.906807020000     1.007825032230
         C            3.779525860000    -1.215084530000     1.768581720000    12.000000000000
         C            2.382429980000    -2.555055380000     0.046076810000    12.000000000000
         C            4.017714680000    -4.384104900000    -0.887618630000    12.000000000000
      Gh(N)          -4.940290130000    21.494483680000     4.857776130000    14.003074004430
      Gh(N)          -4.821427870000    19.456576650000     6.394949840000    14.003074004430
      Gh(H)          -2.267127390000    23.895393650000     4.139745770000     1.007825032230
      Gh(H)           0.627509170000    21.452854910000     6.894883280000     1.007825032230
      Gh(H)          -2.308914910000    17.739805890000     8.799519590000     1.007825032230
      Gh(H)          -6.283836080000    18.646599590000     6.780715170000     1.007825032230
      Gh(C)          -2.538591460000    19.126400980000     7.423998690000    12.000000000000
      Gh(C)          -1.055599030000    21.056073190000     6.534076220000    12.000000000000
      Gh(C)          -2.616904360000    22.441241010000     4.942378280000    12.000000000000

  Running in c1 symmetry.

  Rotational constants: A =      0.03411  B =      0.00180  C =      0.00172 [cm^-1]
  Rotational constants: A =   1022.53988  B =     53.95562  C =     51.66517 [MHz]
  Nuclear repulsion =  166.624056450327203

  Charge       = 0
  Multiplicity = 1
  Electrons    = 36
  Nalpha       = 18
  Nbeta        = 18

  ==> Algorithm <==

  SCF Algorithm Type is DF.
  DIIS enabled.
  MOM disabled.
  Fractional occupation disabled.
  Guess Type is SAD.
  Energy threshold   = 1.00e-10
  Density threshold  = 1.00e-10
  Integral threshold = 1.00e-12

  ==> Primary Basis <==

  Basis Set: AUG-CC-PVDZ
    Blend: AUG-CC-PVDZ
    Number of shells: 130
    Number of basis functions: 302
    Number of Cartesian functions: 322
    Spherical Harmonics?: true
    Max angular momentum: 2

   => Loading Basis Set <=

    Name: (AUG-CC-PVDZ AUX)
    Role: JKFIT
    Keyword: DF_BASIS_SCF
    atoms 1-2, 10-11 entry N          line   212 file /theoryfs2/ds/csargent/miniconda3/envs/cle/share/psi4/basis/aug-cc-pvdz-jkfit.gbs 
    atoms 3-6, 12-15 entry H          line    70 file /theoryfs2/ds/csargent/miniconda3/envs/cle/share/psi4/basis/aug-cc-pvdz-jkfit.gbs 
    atoms 7-9, 16-18 entry C          line   154 file /theoryfs2/ds/csargent/miniconda3/envs/cle/share/psi4/basis/aug-cc-pvdz-jkfit.gbs 

  ==> Integral Setup <==

  ==> DiskDFJK: Density-Fitted J/K Matrices <==

    J tasked:                  Yes
    K tasked:                  Yes
    wK tasked:                  No
    OpenMP threads:              6
    Integrals threads:           6
    Memory [MiB]:             5006
    Algorithm:                Core
    Integral Cache:           LOAD
    Schwarz Cutoff:          1E-12
    Fitting Condition:       1E-10

   => Auxiliary Basis Set <=

  Basis Set: (AUG-CC-PVDZ AUX)
    Blend: AUG-CC-PVDZ-JKFIT
    Number of shells: 376
    Number of basis functions: 1116
    Number of Cartesian functions: 1290
    Spherical Harmonics?: true
    Max angular momentum: 3

  Minimum eigenvalue in the overlap matrix is 3.0293682942E-05.
  Reciprocal condition number of the overlap matrix is 2.4841432330E-06.
    Using symmetric orthogonalization.

  ==> Pre-Iterations <==

  SCF Guess: Superposition of Atomic Densities via on-the-fly atomic UHF (no occupation information).

   -------------------------
    Irrep   Nso     Nmo    
   -------------------------
     A        302     302 
   -------------------------
    Total     302     302
   -------------------------

  ==> Iterations <==

                           Total Energy        Delta E     RMS |[F,P]|

   @DF-RHF iter SAD:  -224.72194801583444   -2.24722e+02   0.00000e+00 
   @DF-RHF iter   1:  -224.63549201075989    8.64560e-02   1.50472e-03 DIIS
   @DF-RHF iter   2:  -224.73984649856607   -1.04354e-01   6.88463e-04 DIIS
   @DF-RHF iter   3:  -224.76075526550864   -2.09088e-02   1.48626e-04 DIIS
   @DF-RHF iter   4:  -224.76213970840629   -1.38444e-03   6.05311e-05 DIIS
   @DF-RHF iter   5:  -224.76231806310989   -1.78355e-04   1.19894e-05 DIIS
   @DF-RHF iter   6:  -224.76233502058420   -1.69575e-05   4.96772e-06 DIIS
   @DF-RHF iter   7:  -224.76233897662240   -3.95604e-06   2.18806e-06 DIIS
   @DF-RHF iter   8:  -224.76233973736456   -7.60742e-07   1.01700e-06 DIIS
   @DF-RHF iter   9:  -224.76233990500666   -1.67642e-07   2.83302e-07 DIIS
   @DF-RHF iter  10:  -224.76233991382759   -8.82093e-09   8.55549e-08 DIIS
   @DF-RHF iter  11:  -224.76233991451730   -6.89710e-10   1.99715e-08 DIIS
   @DF-RHF iter  12:  -224.76233991456317   -4.58726e-11   5.81092e-09 DIIS
   @DF-RHF iter  13:  -224.76233991456741   -4.23483e-12   2.83097e-09 DIIS
   @DF-RHF iter  14:  -224.76233991456840   -9.94760e-13   9.75190e-10 DIIS
   @DF-RHF iter  15:  -224.76233991456840    0.00000e+00   4.15547e-10 DIIS
   @DF-RHF iter  16:  -224.76233991456843   -2.84217e-14   1.25997e-10 DIIS
   @DF-RHF iter  17:  -224.76233991456817    2.55795e-13   4.47782e-11 DIIS
  Energy and wave function converged.


  ==> Post-Iterations <==

    Orbital Energies [Eh]
    ---------------------

    Doubly Occupied:                                                      

       1A    -15.636223     2A    -15.592313     3A    -11.279894  
       4A    -11.237784     5A    -11.209891     6A     -1.386922  
       7A     -1.121902     8A     -1.066898     9A     -0.872768  
      10A     -0.837061    11A     -0.757292    12A     -0.645746  
      13A     -0.620834    14A     -0.609140    15A     -0.583920  
      16A     -0.461404    17A     -0.370721    18A     -0.346048  

    Virtual:                                                              

      19A      0.021081    20A      0.030139    21A      0.038641  
      22A      0.042268    23A      0.043282    24A      0.049358  
      25A      0.062089    26A      0.066425    27A      0.082746  
      28A      0.089662    29A      0.097755    30A      0.101002  
      31A      0.104034    32A      0.116905    33A      0.117178  
      34A      0.123655    35A      0.125685    36A      0.126329  
      37A      0.131870    38A      0.132831    39A      0.135158  
      40A      0.138517    41A      0.143623    42A      0.156883  
      43A      0.157623    44A      0.164475    45A      0.164945  
      46A      0.171084    47A      0.178051    48A      0.178458  
      49A      0.192590    50A      0.198639    51A      0.200510  
      52A      0.205110    53A      0.206184    54A      0.222321  
      55A      0.224545    56A      0.227154    57A      0.234512  
      58A      0.240404    59A      0.243631    60A      0.245052  
      61A      0.263119    62A      0.269716    63A      0.271159  
      64A      0.279466    65A      0.301019    66A      0.320874  
      67A      0.325284    68A      0.339027    69A      0.352518  
      70A      0.355744    71A      0.365585    72A      0.371887  
      73A      0.374989    74A      0.382560    75A      0.396669  
      76A      0.402855    77A      0.415055    78A      0.426261  
      79A      0.431219    80A      0.432259    81A      0.439965  
      82A      0.441069    83A      0.443401    84A      0.453400  
      85A      0.454832    86A      0.456273    87A      0.459834  
      88A      0.460673    89A      0.478681    90A      0.498588  
      91A      0.508328    92A      0.508847    93A      0.518140  
      94A      0.522328    95A      0.532072    96A      0.536915  
      97A      0.542649    98A      0.558222    99A      0.567544  
     100A      0.570660   101A      0.574461   102A      0.586355  
     103A      0.590611   104A      0.593919   105A      0.602428  
     106A      0.612265   107A      0.620136   108A      0.620971  
     109A      0.632393   110A      0.646142   111A      0.655547  
     112A      0.676347   113A      0.689603   114A      0.698049  
     115A      0.700430   116A      0.706634   117A      0.718280  
     118A      0.721716   119A      0.725116   120A      0.734441  
     121A      0.744616   122A      0.747721   123A      0.758617  
     124A      0.773333   125A      0.781501   126A      0.788646  
     127A      0.797038   128A      0.813273   129A      0.819843  
     130A      0.828509   131A      0.838251   132A      0.848598  
     133A      0.850734   134A      0.854105   135A      0.869865  
     136A      0.879933   137A      0.881474   138A      0.888821  
     139A      0.894557   140A      0.906950   141A      0.915012  
     142A      0.924820   143A      0.942608   144A      0.951048  
     145A      0.978222   146A      0.984851   147A      0.996042  
     148A      1.011155   149A      1.023105   150A      1.029232  
     151A      1.046605   152A      1.050537   153A      1.066515  
     154A      1.069970   155A      1.079944   156A      1.100893  
     157A      1.107129   158A      1.128188   159A      1.134556  
     160A      1.150249   161A      1.157724   162A      1.165281  
     163A      1.175169   164A      1.183945   165A      1.220455  
     166A      1.220803   167A      1.235932   168A      1.266956  
     169A      1.269558   170A      1.292732   171A      1.303351  
     172A      1.311397   173A      1.314128   174A      1.339623  
     175A      1.365815   176A      1.380826   177A      1.401058  
     178A      1.433956   179A      1.443688   180A      1.474722  
     181A      1.492151   182A      1.506095   183A      1.512040  
     184A      1.526132   185A      1.560990   186A      1.590885  
     187A      1.608708   188A      1.637495   189A      1.669610  
     190A      1.675728   191A      1.687881   192A      1.703936  
     193A      1.724034   194A      1.749485   195A      1.764449  
     196A      1.805059   197A      1.875633   198A      1.932483  
     199A      1.943561   200A      1.988068   201A      2.021503  
     202A      2.040012   203A      2.057624   204A      2.088854  
     205A      2.108008   206A      2.133739   207A      2.144710  
     208A      2.167010   209A      2.190014   210A      2.200831  
     211A      2.215543   212A      2.230472   213A      2.232778  
     214A      2.260825   215A      2.275825   216A      2.276777  
     217A      2.288377   218A      2.307693   219A      2.334530  
     220A      2.360717   221A      2.379635   222A      2.389166  
     223A      2.393370   224A      2.393864   225A      2.435252  
     226A      2.442771   227A      2.464968   228A      2.477421  
     229A      2.498977   230A      2.512614   231A      2.531804  
     232A      2.547710   233A      2.570232   234A      2.584770  
     235A      2.630283   236A      2.642979   237A      2.666547  
     238A      2.701996   239A      2.717799   240A      2.733045  
     241A      2.826631   242A      2.827250   243A      2.834838  
     244A      2.868688   245A      2.888899   246A      2.901611  
     247A      2.918599   248A      2.944144   249A      2.999171  
     250A      3.026947   251A      3.055340   252A      3.088654  
     253A      3.092510   254A      3.123060   255A      3.139011  
     256A      3.180853   257A      3.188944   258A      3.222008  
     259A      3.253231   260A      3.288184   261A      3.297866  
     262A      3.354628   263A      3.380319   264A      3.394642  
     265A      3.422370   266A      3.447228   267A      3.486177  
     268A      3.496487   269A      3.520780   270A      3.632715  
     271A      3.665940   272A      3.686572   273A      3.734622  
     274A      3.769146   275A      3.850081   276A      3.889506  
     277A      3.963573   278A      4.034653   279A      4.093807  
     280A      4.209520   281A      4.243053   282A      4.447292  
     283A      4.463245   284A      4.657559   285A      4.707136  
     286A      4.748917   287A      4.809822   288A      4.993825  
     289A      5.075835   290A      5.240230   291A      5.530499  
     292A      5.668019   293A      5.825564   294A      6.106040  
     295A      6.317174   296A      6.706608   297A      6.966505  
     298A     18.110151   299A     18.647194   300A     19.372663  
     301A     25.244510   302A     25.704346  

    Final Occupation by Irrep:
              A 
    DOCC [    18 ]

  @DF-RHF Final Energy:  -224.76233991456817

   => Energetics <=

    Nuclear Repulsion Energy =            166.6240564503272026
    One-Electron Energy =                -633.4992741906697802
    Two-Electron Energy =                 242.1128778257744045
    Total Energy =                       -224.7623399145681731

Computation Completed


Properties will be evaluated at   0.000000,   0.000000,   0.000000 [a0]

Properties computed using the SCF density matrix

  Nuclear Dipole Moment: [e a0]
     X:   162.5886      Y:  -104.5054      Z:    23.1563

  Electronic Dipole Moment: [e a0]
     X:  -162.9913      Y:   105.1370      Z:   -22.5767

  Dipole Moment: [e a0]
     X:    -0.4027      Y:     0.6317      Z:     0.5796     Total:     0.9472

  Dipole Moment: [D]
     X:    -1.0236      Y:     1.6055      Z:     1.4732     Total:     2.4075


*** tstop() called on ds1 at Mon Oct  4 15:57:40 2021
Module time:
	user time   =      17.78 seconds =       0.30 minutes
	system time =       0.37 seconds =       0.01 minutes
	total time  =          4 seconds =       0.07 minutes
Total time:
	user time   =      42.78 seconds =       0.71 minutes
	system time =       1.02 seconds =       0.02 minutes
	total time  =          9 seconds =       0.15 minutes

  //>>>>>>>>>>>>>>>>>>>>>>>>>>>>>>>>>>>//
  //            Monomer B HF           //
  //<<<<<<<<<<<<<<<<<<<<<<<<<<<<<<<<<<<//


*** tstart() called on ds1
*** at Mon Oct  4 15:57:40 2021

   => Loading Basis Set <=

    Name: AUG-CC-PVDZ
    Role: ORBITAL
    Keyword: BASIS
    atoms 1-2, 10-11 entry N          line   218 file /theoryfs2/ds/csargent/miniconda3/envs/cle/share/psi4/basis/aug-cc-pvdz.gbs 
    atoms 3-6, 12-15 entry H          line    40 file /theoryfs2/ds/csargent/miniconda3/envs/cle/share/psi4/basis/aug-cc-pvdz.gbs 
    atoms 7-9, 16-18 entry C          line   182 file /theoryfs2/ds/csargent/miniconda3/envs/cle/share/psi4/basis/aug-cc-pvdz.gbs 


         ---------------------------------------------------------
                                   SCF
               by Justin Turney, Rob Parrish, Andy Simmonett
                          and Daniel G. A. Smith
                              RHF Reference
                        6 Threads,   6675 MiB Core
         ---------------------------------------------------------

  ==> Geometry <==

    Molecular point group: c1
    Full point group: C1

    Geometry (in Bohr), charge = 0, multiplicity = 1:

       Center              X                  Y                   Z               Mass       
    ------------   -----------------  -----------------  -----------------  -----------------
      Gh(N)           6.279812100000    -4.253033720000     0.193138650000    14.003074004430
      Gh(N)           6.068707770000    -2.281256970000     1.805443170000    14.003074004430
      Gh(H)           3.668711560000    -5.646289410000    -1.966840010000     1.007825032230
      Gh(H)           0.690345210000    -2.375456940000    -0.428642360000     1.007825032230
      Gh(H)           3.359174420000     0.176506010000     3.092650170000     1.007825032230
      Gh(H)           7.352667820000    -1.994613110000     2.906807020000     1.007825032230
      Gh(C)           3.779525860000    -1.215084530000     1.768581720000    12.000000000000
      Gh(C)           2.382429980000    -2.555055380000     0.046076810000    12.000000000000
      Gh(C)           4.017714680000    -4.384104900000    -0.887618630000    12.000000000000
         N           -4.940290130000    21.494483680000     4.857776130000    14.003074004430
         N           -4.821427870000    19.456576650000     6.394949840000    14.003074004430
         H           -2.267127390000    23.895393650000     4.139745770000     1.007825032230
         H            0.627509170000    21.452854910000     6.894883280000     1.007825032230
         H           -2.308914910000    17.739805890000     8.799519590000     1.007825032230
         H           -6.283836080000    18.646599590000     6.780715170000     1.007825032230
         C           -2.538591460000    19.126400980000     7.423998690000    12.000000000000
         C           -1.055599030000    21.056073190000     6.534076220000    12.000000000000
         C           -2.616904360000    22.441241010000     4.942378280000    12.000000000000

  Running in c1 symmetry.

  Rotational constants: A =      0.03411  B =      0.00180  C =      0.00172 [cm^-1]
  Rotational constants: A =   1022.53988  B =     53.95562  C =     51.66517 [MHz]
  Nuclear repulsion =  166.628602834668044

  Charge       = 0
  Multiplicity = 1
  Electrons    = 36
  Nalpha       = 18
  Nbeta        = 18

  ==> Algorithm <==

  SCF Algorithm Type is DF.
  DIIS enabled.
  MOM disabled.
  Fractional occupation disabled.
  Guess Type is SAD.
  Energy threshold   = 1.00e-10
  Density threshold  = 1.00e-10
  Integral threshold = 1.00e-12

  ==> Primary Basis <==

  Basis Set: AUG-CC-PVDZ
    Blend: AUG-CC-PVDZ
    Number of shells: 130
    Number of basis functions: 302
    Number of Cartesian functions: 322
    Spherical Harmonics?: true
    Max angular momentum: 2

   => Loading Basis Set <=

    Name: (AUG-CC-PVDZ AUX)
    Role: JKFIT
    Keyword: DF_BASIS_SCF
    atoms 1-2, 10-11 entry N          line   212 file /theoryfs2/ds/csargent/miniconda3/envs/cle/share/psi4/basis/aug-cc-pvdz-jkfit.gbs 
    atoms 3-6, 12-15 entry H          line    70 file /theoryfs2/ds/csargent/miniconda3/envs/cle/share/psi4/basis/aug-cc-pvdz-jkfit.gbs 
    atoms 7-9, 16-18 entry C          line   154 file /theoryfs2/ds/csargent/miniconda3/envs/cle/share/psi4/basis/aug-cc-pvdz-jkfit.gbs 

  ==> Integral Setup <==

  ==> DiskDFJK: Density-Fitted J/K Matrices <==

    J tasked:                  Yes
    K tasked:                  Yes
    wK tasked:                  No
    OpenMP threads:              6
    Integrals threads:           6
    Memory [MiB]:             5006
    Algorithm:                Core
    Integral Cache:           LOAD
    Schwarz Cutoff:          1E-12
    Fitting Condition:       1E-10

   => Auxiliary Basis Set <=

  Basis Set: (AUG-CC-PVDZ AUX)
    Blend: AUG-CC-PVDZ-JKFIT
    Number of shells: 376
    Number of basis functions: 1116
    Number of Cartesian functions: 1290
    Spherical Harmonics?: true
    Max angular momentum: 3

  Minimum eigenvalue in the overlap matrix is 3.0293682942E-05.
  Reciprocal condition number of the overlap matrix is 2.4841432330E-06.
    Using symmetric orthogonalization.

  ==> Pre-Iterations <==

  SCF Guess: Superposition of Atomic Densities via on-the-fly atomic UHF (no occupation information).

   -------------------------
    Irrep   Nso     Nmo    
   -------------------------
     A        302     302 
   -------------------------
    Total     302     302
   -------------------------

  ==> Iterations <==

                           Total Energy        Delta E     RMS |[F,P]|

   @DF-RHF iter SAD:  -224.72250855458202   -2.24723e+02   0.00000e+00 
   @DF-RHF iter   1:  -224.63556629643367    8.69423e-02   1.50490e-03 DIIS
   @DF-RHF iter   2:  -224.73993348904548   -1.04367e-01   6.88621e-04 DIIS
   @DF-RHF iter   3:  -224.76085126750968   -2.09178e-02   1.48614e-04 DIIS
   @DF-RHF iter   4:  -224.76223546508689   -1.38420e-03   6.05151e-05 DIIS
   @DF-RHF iter   5:  -224.76241370954330   -1.78244e-04   1.19848e-05 DIIS
   @DF-RHF iter   6:  -224.76243064266680   -1.69331e-05   4.96323e-06 DIIS
   @DF-RHF iter   7:  -224.76243459051224   -3.94785e-06   2.18628e-06 DIIS
   @DF-RHF iter   8:  -224.76243535005247   -7.59540e-07   1.01631e-06 DIIS
   @DF-RHF iter   9:  -224.76243551755763   -1.67505e-07   2.83280e-07 DIIS
   @DF-RHF iter  10:  -224.76243552637521   -8.81758e-09   8.55271e-08 DIIS
   @DF-RHF iter  11:  -224.76243552706512   -6.89909e-10   1.99680e-08 DIIS
   @DF-RHF iter  12:  -224.76243552711088   -4.57590e-11   5.80984e-09 DIIS
   @DF-RHF iter  13:  -224.76243552711566   -4.77485e-12   2.83593e-09 DIIS
   @DF-RHF iter  14:  -224.76243552711662   -9.66338e-13   9.79899e-10 DIIS
   @DF-RHF iter  15:  -224.76243552711648    1.42109e-13   4.16554e-10 DIIS
   @DF-RHF iter  16:  -224.76243552711645    2.84217e-14   1.25809e-10 DIIS
   @DF-RHF iter  17:  -224.76243552711671   -2.55795e-13   4.47611e-11 DIIS
  Energy and wave function converged.


  ==> Post-Iterations <==

    Orbital Energies [Eh]
    ---------------------

    Doubly Occupied:                                                      

       1A    -15.636233     2A    -15.592291     3A    -11.279903  
       4A    -11.237759     5A    -11.209884     6A     -1.387001  
       7A     -1.121894     8A     -1.066927     9A     -0.872759  
      10A     -0.837039    11A     -0.757272    12A     -0.645745  
      13A     -0.620828    14A     -0.609177    15A     -0.583905  
      16A     -0.461413    17A     -0.370715    18A     -0.346055  

    Virtual:                                                              

      19A      0.021872    20A      0.029830    21A      0.039543  
      22A      0.042413    23A      0.043773    24A      0.049197  
      25A      0.062378    26A      0.066733    27A      0.083474  
      28A      0.090237    29A      0.097419    30A      0.101562  
      31A      0.104061    32A      0.117000    33A      0.118052  
      34A      0.124816    35A      0.126286    36A      0.127348  
      37A      0.132464    38A      0.133502    39A      0.134621  
      40A      0.138432    41A      0.142489    42A      0.157237  
      43A      0.158171    44A      0.164349    45A      0.165668  
      46A      0.170998    47A      0.178350    48A      0.179290  
      49A      0.194879    50A      0.196211    51A      0.200734  
      52A      0.205354    53A      0.206760    54A      0.222544  
      55A      0.225135    56A      0.227801    57A      0.235078  
      58A      0.240687    59A      0.244294    60A      0.245007  
      61A      0.263697    62A      0.270535    63A      0.271346  
      64A      0.279118    65A      0.301029    66A      0.321527  
      67A      0.325248    68A      0.340163    69A      0.352460  
      70A      0.355513    71A      0.366014    72A      0.372454  
      73A      0.375147    74A      0.383228    75A      0.396381  
      76A      0.402862    77A      0.415006    78A      0.427126  
      79A      0.431525    80A      0.432202    81A      0.440624  
      82A      0.441752    83A      0.443558    84A      0.453462  
      85A      0.455488    86A      0.456893    87A      0.459892  
      88A      0.461410    89A      0.478808    90A      0.498613  
      91A      0.507821    92A      0.510267    93A      0.519104  
      94A      0.522271    95A      0.532584    96A      0.537569  
      97A      0.542056    98A      0.558860    99A      0.568298  
     100A      0.571295   101A      0.574515   102A      0.586465  
     103A      0.590573   104A      0.594680   105A      0.602453  
     106A      0.612964   107A      0.620382   108A      0.621537  
     109A      0.633019   110A      0.646114   111A      0.655337  
     112A      0.676259   113A      0.690295   114A      0.698041  
     115A      0.700400   116A      0.707345   117A      0.718966  
     118A      0.721714   119A      0.725144   120A      0.735137  
     121A      0.745344   122A      0.747858   123A      0.758653  
     124A      0.773318   125A      0.781478   126A      0.789243  
     127A      0.797594   128A      0.814069   129A      0.820487  
     130A      0.828537   131A      0.838244   132A      0.848549  
     133A      0.851429   134A      0.854621   135A      0.870567  
     136A      0.880565   137A      0.881407   138A      0.888940  
     139A      0.895173   140A      0.906953   141A      0.915638  
     142A      0.924820   143A      0.942649   144A      0.951668  
     145A      0.978207   146A      0.984856   147A      0.996705  
     148A      1.011198   149A      1.023737   150A      1.029829  
     151A      1.046626   152A      1.051240   153A      1.066514  
     154A      1.070834   155A      1.080603   156A      1.100930  
     157A      1.107740   158A      1.128175   159A      1.134220  
     160A      1.150300   161A      1.158361   162A      1.165957  
     163A      1.175176   164A      1.184562   165A      1.220595  
     166A      1.221305   167A      1.236575   168A      1.267631  
     169A      1.269606   170A      1.293341   171A      1.303418  
     172A      1.311434   173A      1.314823   174A      1.340302  
     175A      1.365804   176A      1.381479   177A      1.401077  
     178A      1.434584   179A      1.444292   180A      1.474745  
     181A      1.492884   182A      1.506611   183A      1.512043  
     184A      1.526176   185A      1.560979   186A      1.590896  
     187A      1.608937   188A      1.637463   189A      1.669573  
     190A      1.676320   191A      1.688589   192A      1.703902  
     193A      1.723972   194A      1.749424   195A      1.764383  
     196A      1.805041   197A      1.875592   198A      1.932595  
     199A      1.943589   200A      1.988144   201A      2.021465  
     202A      2.040688   203A      2.057663   204A      2.088811  
     205A      2.108609   206A      2.134446   207A      2.144714  
     208A      2.167721   209A      2.190000   210A      2.200837  
     211A      2.216232   212A      2.230458   213A      2.233473  
     214A      2.261519   215A      2.275832   216A      2.277577  
     217A      2.289209   218A      2.307639   219A      2.335273  
     220A      2.360665   221A      2.380276   222A      2.389267  
     223A      2.393745   224A      2.394149   225A      2.435230  
     226A      2.443453   227A      2.464955   228A      2.478041  
     229A      2.499605   230A      2.513192   231A      2.531787  
     232A      2.548459   233A      2.570196   234A      2.584827  
     235A      2.630941   236A      2.642962   237A      2.667186  
     238A      2.702642   239A      2.718513   240A      2.733052  
     241A      2.826808   242A      2.827594   243A      2.834713  
     244A      2.869334   245A      2.889612   246A      2.901586  
     247A      2.918566   248A      2.944827   249A      2.999198  
     250A      3.027643   251A      3.055320   252A      3.089415  
     253A      3.092538   254A      3.122808   255A      3.139649  
     256A      3.181601   257A      3.189055   258A      3.222030  
     259A      3.253770   260A      3.288852   261A      3.297919  
     262A      3.355396   263A      3.380238   264A      3.395289  
     265A      3.423056   266A      3.447957   267A      3.486815  
     268A      3.497121   269A      3.520774   270A      3.633251  
     271A      3.666601   272A      3.686296   273A      3.735258  
     274A      3.769696   275A      3.850736   276A      3.889319  
     277A      3.964314   278A      4.035139   279A      4.094677  
     280A      4.209396   281A      4.243690   282A      4.448148  
     283A      4.463034   284A      4.658096   285A      4.707652  
     286A      4.749555   287A      4.810456   288A      4.994498  
     289A      5.076566   290A      5.241154   291A      5.530915  
     292A      5.668569   293A      5.826419   294A      6.106346  
     295A      6.317988   296A      6.708051   297A      6.967495  
     298A     18.110865   299A     18.647650   300A     19.373419  
     301A     25.245221   302A     25.704604  

    Final Occupation by Irrep:
              A 
    DOCC [    18 ]

  @DF-RHF Final Energy:  -224.76243552711671

   => Energetics <=

    Nuclear Repulsion Energy =            166.6286028346680439
    One-Electron Energy =                -633.5084768856199844
    Two-Electron Energy =                 242.1174385238352045
    Total Energy =                       -224.7624355271167076

Computation Completed


Properties will be evaluated at   0.000000,   0.000000,   0.000000 [a0]

Properties computed using the SCF density matrix

  Nuclear Dipole Moment: [e a0]
     X:  -115.8310      Y:   744.1344      Z:   218.7867

  Electronic Dipole Moment: [e a0]
     X:   116.1219      Y:  -744.6984      Z:  -218.0836

  Dipole Moment: [e a0]
     X:     0.2909      Y:    -0.5640      Z:     0.7031     Total:     0.9472

  Dipole Moment: [D]
     X:     0.7394      Y:    -1.4336      Z:     1.7871     Total:     2.4074


*** tstop() called on ds1 at Mon Oct  4 15:57:44 2021
Module time:
	user time   =      17.65 seconds =       0.29 minutes
	system time =       0.35 seconds =       0.01 minutes
	total time  =          4 seconds =       0.07 minutes
Total time:
	user time   =      60.59 seconds =       1.01 minutes
	system time =       1.38 seconds =       0.02 minutes
	total time  =         13 seconds =       0.22 minutes
  Constructing Basis Sets for SAPT...

   => Loading Basis Set <=

    Name: (AUG-CC-PVDZ AUX)
    Role: RIFIT
    Keyword: DF_BASIS_SAPT
    atoms 1-2, 10-11 entry N          line   158 file /theoryfs2/ds/csargent/miniconda3/envs/cle/share/psi4/basis/aug-cc-pvdz-ri.gbs 
    atoms 3-6, 12-15 entry H          line    30 file /theoryfs2/ds/csargent/miniconda3/envs/cle/share/psi4/basis/aug-cc-pvdz-ri.gbs 
    atoms 7-9, 16-18 entry C          line   112 file /theoryfs2/ds/csargent/miniconda3/envs/cle/share/psi4/basis/aug-cc-pvdz-ri.gbs 


  //>>>>>>>>>>>>>>>>>>>>>>>>>>>>>>>>>>>//
  //               SAPT0               //
  //<<<<<<<<<<<<<<<<<<<<<<<<<<<<<<<<<<<//


*** tstart() called on ds1
*** at Mon Oct  4 15:57:44 2021

        SAPT0  
    Ed Hohenstein
     6 June 2009

      Orbital Information
  --------------------------
    NSO        =       302
    NMO        =       302
    NRI        =       904
    NOCC A     =        18
    NOCC B     =        18
    FOCC A     =         5
    FOCC B     =         5
    NVIR A     =       284
    NVIR B     =       284

    Elst10,r            =     0.000070351429 [Eh]
    Exch10              =     0.000000000846 [Eh]
    Exch10 (S^2)        =     0.000000000846 [Eh]

    Iter     Energy [mEh]          dE [mEh]         Residual      Time [s]
       1      -0.00013193       0.000131927       0.115040893             0
       2      -0.00012414      -0.000007789       0.031237013             1
       3      -0.00013664       0.000012500       0.013674977             1
       4      -0.00013892       0.000002286       0.004028974             1
       5      -0.00013843      -0.000000492       0.002555397             1
       6      -0.00013823      -0.000000202       0.000799280             1
       7      -0.00013829       0.000000058       0.000358200             1
       8      -0.00013831       0.000000024       0.000119625             1
       9      -0.00013831      -0.000000000       0.000029911             1
      10      -0.00013831      -0.000000003       0.000007929             2
      11      -0.00013831       0.000000000       0.000002881             2
      12      -0.00013831       0.000000000       0.000000769             2

    CHF Iterations converged


    Iter     Energy [mEh]          dE [mEh]         Residual      Time [s]
       1      -0.00026439       0.000264387       0.175389642             0
       2      -0.00024396      -0.000020424       0.043403891             0
       3      -0.00027018       0.000026221       0.019615975             0
       4      -0.00027423       0.000004045       0.006733513             0
       5      -0.00027314      -0.000001094       0.004042992             1
       6      -0.00027270      -0.000000438       0.001290304             1
       7      -0.00027280       0.000000099       0.000532332             1
       8      -0.00027285       0.000000058       0.000170336             1
       9      -0.00027285       0.000000000       0.000040239             1
      10      -0.00027285      -0.000000006       0.000009021             1
      11      -0.00027285       0.000000001       0.000003730             1
      12      -0.00027285       0.000000000       0.000001271             1
      13      -0.00027285      -0.000000000       0.000000356             2

    CHF Iterations converged

    Ind20,r (A<-B)      =    -0.000000138310 [Eh]
    Ind20,r (B<-A)      =    -0.000000272850 [Eh]
    Ind20,r             =    -0.000000411160 [Eh]
    Exch-Ind20,r (A<-B) =     0.000000000367 [Eh]
    Exch-Ind20,r (B<-A) =     0.000000000913 [Eh]
    Exch-Ind20,r        =     0.000000001280 [Eh]
    Disp20              =    -0.000004835955 [Eh]
    Disp20 (SS)         =    -0.000002417977 [Eh]
    Disp20 (OS)         =    -0.000002417977 [Eh]
    Exch-Disp20         =     0.000000000056 [Eh]
    Exch-Disp20 (SS)    =     0.000000000044 [Eh]
    Exch-Disp20 (OS)    =     0.000000000012 [Eh]

    SAPT Results 
  --------------------------------------------------------------------------------------------------------
    Electrostatics                  0.07035143 [mEh]       0.04414619 [kcal/mol]       0.18470765 [kJ/mol]
      Elst10,r                      0.07035143 [mEh]       0.04414619 [kcal/mol]       0.18470765 [kJ/mol]

    Exchange                        0.00000085 [mEh]       0.00000053 [kcal/mol]       0.00000222 [kJ/mol]
      Exch10                        0.00000085 [mEh]       0.00000053 [kcal/mol]       0.00000222 [kJ/mol]
      Exch10(S^2)                   0.00000085 [mEh]       0.00000053 [kcal/mol]       0.00000222 [kJ/mol]

    Induction                      -0.00027431 [mEh]      -0.00017213 [kcal/mol]      -0.00072019 [kJ/mol]
      Ind20,r                      -0.00041116 [mEh]      -0.00025801 [kcal/mol]      -0.00107950 [kJ/mol]
      Exch-Ind20,r                  0.00000128 [mEh]       0.00000080 [kcal/mol]       0.00000336 [kJ/mol]
      delta HF,r (2)                0.00013557 [mEh]       0.00008507 [kcal/mol]       0.00035595 [kJ/mol]

    Dispersion                     -0.00483590 [mEh]      -0.00303457 [kcal/mol]      -0.01269665 [kJ/mol]
      Disp20                       -0.00483595 [mEh]      -0.00303461 [kcal/mol]      -0.01269680 [kJ/mol]
      Exch-Disp20                   0.00000006 [mEh]       0.00000003 [kcal/mol]       0.00000015 [kJ/mol]
      Disp20 (SS)                  -0.00241798 [mEh]      -0.00151730 [kcal/mol]      -0.00634840 [kJ/mol]
      Disp20 (OS)                  -0.00241798 [mEh]      -0.00151730 [kcal/mol]      -0.00634840 [kJ/mol]
      Exch-Disp20 (SS)              0.00000004 [mEh]       0.00000003 [kcal/mol]       0.00000012 [kJ/mol]
      Exch-Disp20 (OS)              0.00000001 [mEh]       0.00000001 [kcal/mol]       0.00000003 [kJ/mol]

  Total HF                          0.07007797 [mEh]       0.04397459 [kcal/mol]       0.18398969 [kJ/mol]
  Total SAPT0                       0.06524207 [mEh]       0.04094002 [kcal/mol]       0.17129303 [kJ/mol]

  Special recipe for scaled SAPT0 (see Manual):
    Electrostatics sSAPT0           0.07035143 [mEh]       0.04414619 [kcal/mol]       0.18470765 [kJ/mol]
    Exchange sSAPT0                 0.00000085 [mEh]       0.00000053 [kcal/mol]       0.00000222 [kJ/mol]
    Induction sSAPT0               -0.00027431 [mEh]      -0.00017213 [kcal/mol]      -0.00072019 [kJ/mol]
    Dispersion sSAPT0              -0.00483590 [mEh]      -0.00303457 [kcal/mol]      -0.01269665 [kJ/mol]
  Total sSAPT0                      0.06524207 [mEh]       0.04094002 [kcal/mol]       0.17129303 [kJ/mol]
  --------------------------------------------------------------------------------------------------------

*** tstop() called on ds1 at Mon Oct  4 15:57:54 2021
Module time:
	user time   =      46.43 seconds =       0.77 minutes
	system time =       4.13 seconds =       0.07 minutes
	total time  =         10 seconds =       0.17 minutes
Total time:
	user time   =     108.03 seconds =       1.80 minutes
	system time =       5.55 seconds =       0.09 minutes
	total time  =         23 seconds =       0.38 minutes


Warning! sapt0 does not have an associated derived wavefunction.The returned wavefunction is the dimer SCF wavefunction.


    Psi4 stopped on: Monday, 04 October 2021 03:57PM
    Psi4 wall time for execution: 0:00:22.89

*** Psi4 exiting successfully. Buy a developer a beer!
