
    -----------------------------------------------------------------------
          Psi4: An Open-Source Ab Initio Electronic Structure Package
                               Psi4 1.4rc3 

                         Git: Rev {HEAD} 080dba6 


    D. G. A. Smith, L. A. Burns, A. C. Simmonett, R. M. Parrish,
    M. C. Schieber, R. Galvelis, P. Kraus, H. Kruse, R. Di Remigio,
    A. Alenaizan, A. M. James, S. Lehtola, J. P. Misiewicz, M. Scheurer,
    R. A. Shaw, J. B. Schriber, Y. Xie, Z. L. Glick, D. A. Sirianni,
    J. S. O'Brien, J. M. Waldrop, A. Kumar, E. G. Hohenstein,
    B. P. Pritchard, B. R. Brooks, H. F. Schaefer III, A. Yu. Sokolov,
    K. Patkowski, A. E. DePrince III, U. Bozkaya, R. A. King,
    F. A. Evangelista, J. M. Turney, T. D. Crawford, C. D. Sherrill,
    J. Chem. Phys. 152(18) 184108 (2020). https://doi.org/10.1063/5.0006002

                            Additional Code Authors
    E. T. Seidl, C. L. Janssen, E. F. Valeev, M. L. Leininger,
    J. F. Gonthier, R. M. Richard, H. R. McAlexander, M. Saitow, X. Wang,
    P. Verma, and M. H. Lechner

             Previous Authors, Complete List of Code Contributors,
                       and Citations for Specific Modules
    https://github.com/psi4/psi4/blob/master/codemeta.json
    https://github.com/psi4/psi4/graphs/contributors
    http://psicode.org/psi4manual/master/introduction.html#citing-psifour

    -----------------------------------------------------------------------


    Psi4 started on: Monday, 04 October 2021 02:41PM

    Process ID: 11064
    Host:       ds1
    PSIDATADIR: /theoryfs2/ds/csargent/miniconda3/envs/cle/share/psi4
    Memory:     500.0 MiB
    Threads:    6
    
  ==> Input File <==

--------------------------------------------------------------------------
# PSI4 file produced by CrystaLattE

# Generated from:               pyrazole.xyz
# Psithon input for N-mer:      2mer-0+552
# Number of atoms per monomer:  [9, 9]
# Number of replicas:           1
# COM priority:                 1.626104997029e-05
# Minimum COM separations:      20.887 
# Separation priority:          2.587419709785e-05
# Minimum monomer separations:  17.891 
# Cutoff priority:              7.652837813762e-07
# Nuclear repulsion energy:     366.0809673408543

memory 7 GB

molecule Dimer_0_552 {
  N            6.27981210      -4.25303372       0.19313865 
  N            6.06870777      -2.28125697       1.80544317 
  H            3.66871156      -5.64628941      -1.96684001 
  H            0.69034521      -2.37545694      -0.42864236 
  H            3.35917442       0.17650601       3.09265017 
  H            7.35266782      -1.99461311       2.90680702 
  C            3.77952586      -1.21508453       1.76858172 
  C            2.38242998      -2.55505538       0.04607681 
  C            4.01771468      -4.38410490      -0.88761863 
--
  N           18.27499532     -21.38696250      33.58564583 
  N           18.39385758     -19.34905546      32.04847211 
  H           20.94815806     -23.78787247      34.30367619 
  H           23.84279462     -21.34533372      31.54853868 
  H           20.90637054     -17.63228471      29.64390237 
  H           16.93144937     -18.53907841      31.66270679 
  C           20.67669399     -19.01887980      31.01942327 
  C           22.15968642     -20.94855201      31.90934573 
  C           20.59838109     -22.33371982      33.50104368 
units = au
no_com
no_reorient
}

set {
  e_convergence 10
  d_convergence 10
  scf_type df
  mp2_type df
  cc_type df
  freeze_core true
}

energy('sapt0/aug-cc-pvdz')

--------------------------------------------------------------------------

  Memory set to   6.519 GiB by Python driver.

Scratch directory: /scratch/csargent/psi4.7158.66302/

Scratch directory: /scratch/csargent/psi4.7158.66302/

  //>>>>>>>>>>>>>>>>>>>>>>>>>>>>>>>>>>>//
  //              Dimer HF             //
  //<<<<<<<<<<<<<<<<<<<<<<<<<<<<<<<<<<<//


*** tstart() called on ds1
*** at Mon Oct  4 14:41:29 2021

   => Loading Basis Set <=

    Name: AUG-CC-PVDZ
    Role: ORBITAL
    Keyword: BASIS
    atoms 1-2, 10-11 entry N          line   218 file /theoryfs2/ds/csargent/miniconda3/envs/cle/share/psi4/basis/aug-cc-pvdz.gbs 
    atoms 3-6, 12-15 entry H          line    40 file /theoryfs2/ds/csargent/miniconda3/envs/cle/share/psi4/basis/aug-cc-pvdz.gbs 
    atoms 7-9, 16-18 entry C          line   182 file /theoryfs2/ds/csargent/miniconda3/envs/cle/share/psi4/basis/aug-cc-pvdz.gbs 


         ---------------------------------------------------------
                                   SCF
               by Justin Turney, Rob Parrish, Andy Simmonett
                          and Daniel G. A. Smith
                              RHF Reference
                        6 Threads,   6675 MiB Core
         ---------------------------------------------------------

  ==> Geometry <==

    Molecular point group: c1
    Full point group: C1

    Geometry (in Bohr), charge = 0, multiplicity = 1:

       Center              X                  Y                   Z               Mass       
    ------------   -----------------  -----------------  -----------------  -----------------
         N            6.279812100000    -4.253033720000     0.193138650000    14.003074004430
         N            6.068707770000    -2.281256970000     1.805443170000    14.003074004430
         H            3.668711560000    -5.646289410000    -1.966840010000     1.007825032230
         H            0.690345210000    -2.375456940000    -0.428642360000     1.007825032230
         H            3.359174420000     0.176506010000     3.092650170000     1.007825032230
         H            7.352667820000    -1.994613110000     2.906807020000     1.007825032230
         C            3.779525860000    -1.215084530000     1.768581720000    12.000000000000
         C            2.382429980000    -2.555055380000     0.046076810000    12.000000000000
         C            4.017714680000    -4.384104900000    -0.887618630000    12.000000000000
         N           18.274995320000   -21.386962500000    33.585645830000    14.003074004430
         N           18.393857580000   -19.349055460000    32.048472110000    14.003074004430
         H           20.948158060000   -23.787872470000    34.303676190000     1.007825032230
         H           23.842794620000   -21.345333720000    31.548538680000     1.007825032230
         H           20.906370540000   -17.632284710000    29.643902370000     1.007825032230
         H           16.931449370000   -18.539078410000    31.662706790000     1.007825032230
         C           20.676693990000   -19.018879800000    31.019423270000    12.000000000000
         C           22.159686420000   -20.948552010000    31.909345730000    12.000000000000
         C           20.598381090000   -22.333719820000    33.501043680000    12.000000000000

  Running in c1 symmetry.

  Rotational constants: A =      0.04198  B =      0.00047  C =      0.00046 [cm^-1]
  Rotational constants: A =   1258.60325  B =     14.00557  C =     13.89477 [MHz]
  Nuclear repulsion =  366.080967336253366

  Charge       = 0
  Multiplicity = 1
  Electrons    = 72
  Nalpha       = 36
  Nbeta        = 36

  ==> Algorithm <==

  SCF Algorithm Type is DF.
  DIIS enabled.
  MOM disabled.
  Fractional occupation disabled.
  Guess Type is SAD.
  Energy threshold   = 1.00e-10
  Density threshold  = 1.00e-10
  Integral threshold = 1.00e-12

  ==> Primary Basis <==

  Basis Set: AUG-CC-PVDZ
    Blend: AUG-CC-PVDZ
    Number of shells: 130
    Number of basis functions: 302
    Number of Cartesian functions: 322
    Spherical Harmonics?: true
    Max angular momentum: 2

   => Loading Basis Set <=

    Name: (AUG-CC-PVDZ AUX)
    Role: JKFIT
    Keyword: DF_BASIS_SCF
    atoms 1-2, 10-11 entry N          line   212 file /theoryfs2/ds/csargent/miniconda3/envs/cle/share/psi4/basis/aug-cc-pvdz-jkfit.gbs 
    atoms 3-6, 12-15 entry H          line    70 file /theoryfs2/ds/csargent/miniconda3/envs/cle/share/psi4/basis/aug-cc-pvdz-jkfit.gbs 
    atoms 7-9, 16-18 entry C          line   154 file /theoryfs2/ds/csargent/miniconda3/envs/cle/share/psi4/basis/aug-cc-pvdz-jkfit.gbs 

  ==> Integral Setup <==

  ==> DiskDFJK: Density-Fitted J/K Matrices <==

    J tasked:                  Yes
    K tasked:                  Yes
    wK tasked:                  No
    OpenMP threads:              6
    Integrals threads:           6
    Memory [MiB]:             5006
    Algorithm:                Core
    Integral Cache:           SAVE
    Schwarz Cutoff:          1E-12
    Fitting Condition:       1E-10

   => Auxiliary Basis Set <=

  Basis Set: (AUG-CC-PVDZ AUX)
    Blend: AUG-CC-PVDZ-JKFIT
    Number of shells: 376
    Number of basis functions: 1116
    Number of Cartesian functions: 1290
    Spherical Harmonics?: true
    Max angular momentum: 3

  Minimum eigenvalue in the overlap matrix is 3.0324469126E-05.
  Reciprocal condition number of the overlap matrix is 2.4867199235E-06.
    Using symmetric orthogonalization.

  ==> Pre-Iterations <==

  SCF Guess: Superposition of Atomic Densities via on-the-fly atomic UHF (no occupation information).

   -------------------------
    Irrep   Nso     Nmo    
   -------------------------
     A        302     302 
   -------------------------
    Total     302     302
   -------------------------

  ==> Iterations <==

                           Total Energy        Delta E     RMS |[F,P]|

   @DF-RHF iter SAD:  -449.44445656336188   -4.49444e+02   0.00000e+00 
   @DF-RHF iter   1:  -449.27100906849267    1.73447e-01   2.12831e-03 DIIS
   @DF-RHF iter   2:  -449.47973870269789   -2.08730e-01   9.74121e-04 DIIS
   @DF-RHF iter   3:  -449.52159772870993   -4.18590e-02   2.10332e-04 DIIS
   @DF-RHF iter   4:  -449.52436867790158   -2.77095e-03   8.57087e-05 DIIS
   @DF-RHF iter   5:  -449.52472620571257   -3.57528e-04   1.69483e-05 DIIS
   @DF-RHF iter   6:  -449.52476010881526   -3.39031e-05   7.02312e-06 DIIS
   @DF-RHF iter   7:  -449.52476801604462   -7.90723e-06   3.09063e-06 DIIS
   @DF-RHF iter   8:  -449.52476953596397   -1.51992e-06   1.43770e-06 DIIS
   @DF-RHF iter   9:  -449.52476987076182   -3.34798e-07   4.00592e-07 DIIS
   @DF-RHF iter  10:  -449.52476988838356   -1.76217e-08   1.21033e-07 DIIS
   @DF-RHF iter  11:  -449.52476988976235   -1.37879e-09   2.82191e-08 DIIS
   @DF-RHF iter  12:  -449.52476988985370   -9.13474e-11   8.20464e-09 DIIS
   @DF-RHF iter  13:  -449.52476988986200   -8.29914e-12   3.99495e-09 DIIS
   @DF-RHF iter  14:  -449.52476988986433   -2.33058e-12   1.37528e-09 DIIS
   @DF-RHF iter  15:  -449.52476988986422    1.13687e-13   5.86716e-10 DIIS
   @DF-RHF iter  16:  -449.52476988986467   -4.54747e-13   1.78959e-10 DIIS
   @DF-RHF iter  17:  -449.52476988986461    5.68434e-14   6.42069e-11 DIIS
  Energy and wave function converged.


  ==> Post-Iterations <==

    Orbital Energies [Eh]
    ---------------------

    Doubly Occupied:                                                      

       1A    -15.636753     2A    -15.636247     3A    -15.592833  
       4A    -15.592301     5A    -11.280411     6A    -11.279913  
       7A    -11.238297     8A    -11.237765     9A    -11.210395  
      10A    -11.209888    11A     -1.387449    12A     -1.387014  
      13A     -1.122427    14A     -1.121905    15A     -1.067413  
      16A     -1.066935    17A     -0.873287    18A     -0.872769  
      19A     -0.837571    20A     -0.837045    21A     -0.757809  
      22A     -0.757281    23A     -0.646263    24A     -0.645754  
      25A     -0.621342    26A     -0.620833    27A     -0.609667  
      28A     -0.609190    29A     -0.584432    30A     -0.583913  
      31A     -0.461930    32A     -0.461424    33A     -0.371239  
      34A     -0.370724    35A     -0.346563    36A     -0.346062  

    Virtual:                                                              

      37A      0.030190    38A      0.030724    39A      0.041946  
      40A      0.042392    41A      0.048617    42A      0.049141  
      43A      0.063020    44A      0.063506    45A      0.100467  
      46A      0.100986    47A      0.103510    48A      0.104016  
      49A      0.116709    50A      0.117200    51A      0.125756  
      52A      0.126260    53A      0.132542    54A      0.133048  
      55A      0.137958    56A      0.138410    57A      0.141038  
      58A      0.141506    59A      0.156433    60A      0.156901  
      61A      0.164144    62A      0.164602    63A      0.170546  
      64A      0.171066    65A      0.177909    66A      0.178400  
      67A      0.195456    68A      0.195994    69A      0.204239  
      70A      0.204794    71A      0.205605    72A      0.206142  
      73A      0.239736    74A      0.240242    75A      0.243105  
      76A      0.243612    77A      0.244436    78A      0.244952  
      79A      0.270601    80A      0.271130    81A      0.278538  
      82A      0.279045    83A      0.300507    84A      0.301020  
      85A      0.324628    86A      0.325123    87A      0.351835  
      88A      0.352338    89A      0.354865    90A      0.355357  
      91A      0.374392    92A      0.374906    93A      0.395553  
      94A      0.396048    95A      0.402221    96A      0.402729  
      97A      0.414531    98A      0.415016    99A      0.431591  
     100A      0.432112   101A      0.442871   102A      0.443368  
     103A      0.452868   104A      0.453400   105A      0.459315  
     106A      0.459815   107A      0.478111   108A      0.478640  
     109A      0.498034   110A      0.498539   111A      0.508178  
     112A      0.508685   113A      0.521404   114A      0.521941  
     115A      0.541059   116A      0.541566   117A      0.573897  
     118A      0.574410   119A      0.585802   120A      0.586317  
     121A      0.590029   122A      0.590539   123A      0.601900  
     124A      0.602421   125A      0.620450   126A      0.620968  
     127A      0.645608   128A      0.646106   129A      0.654806  
     130A      0.655301   131A      0.675652   132A      0.676165  
     133A      0.697537   134A      0.698031   135A      0.699875  
     136A      0.700375   137A      0.721153   138A      0.721636  
     139A      0.724603   140A      0.725114   141A      0.747196  
     142A      0.747710   143A      0.758088   144A      0.758637  
     145A      0.772809   146A      0.773295   147A      0.780951  
     148A      0.781465   149A      0.827985   150A      0.828503  
     151A      0.837705   152A      0.838227   153A      0.847891  
     154A      0.848373   155A      0.880898   156A      0.881389  
     157A      0.888258   158A      0.888755   159A      0.906440  
     160A      0.906944   161A      0.924286   162A      0.924788  
     163A      0.942068   164A      0.942592   165A      0.977716  
     166A      0.978204   167A      0.984338   168A      0.984846  
     169A      1.010624   170A      1.011159   171A      1.046068  
     172A      1.046606   173A      1.065998   174A      1.066495  
     175A      1.100318   176A      1.100836   177A      1.127548  
     178A      1.128094   179A      1.133674   180A      1.134141  
     181A      1.149726   182A      1.150237   183A      1.174657  
     184A      1.175160   185A      1.220026   186A      1.220528  
     187A      1.269042   188A      1.269565   189A      1.302820  
     190A      1.303378   191A      1.310870   192A      1.311419  
     193A      1.365281   194A      1.365791   195A      1.400541  
     196A      1.401035   197A      1.474158   198A      1.474690  
     199A      1.511498   200A      1.512009   201A      1.525622  
     202A      1.526130   203A      1.560480   204A      1.560969  
     205A      1.590376   206A      1.590883   207A      1.608163  
     208A      1.608675   209A      1.636937   210A      1.637435  
     211A      1.668967   212A      1.669489   213A      1.703116  
     214A      1.703628   215A      1.723433   216A      1.723949  
     217A      1.748703   218A      1.749242   219A      1.763858  
     220A      1.764358   221A      1.804535   222A      1.805018  
     223A      1.875118   224A      1.875580   225A      1.931875  
     226A      1.932397   227A      1.943057   228A      1.943560  
     229A      1.987562   230A      1.988135   231A      2.020928  
     232A      2.021445   233A      2.057097   234A      2.057654  
     235A      2.088318   236A      2.088798   237A      2.144170  
     238A      2.144700   239A      2.189494   240A      2.189990  
     241A      2.200321   242A      2.200823   243A      2.229932  
     244A      2.230443   245A      2.275322   246A      2.275829  
     247A      2.307117   248A      2.307625   249A      2.360208  
     250A      2.360640   251A      2.388611   252A      2.389111  
     253A      2.393276   254A      2.393736   255A      2.434715  
     256A      2.435184   257A      2.464423   258A      2.464923  
     259A      2.531280   260A      2.531776   261A      2.569712  
     262A      2.570186   263A      2.584180   264A      2.584803  
     265A      2.642438   266A      2.642947   267A      2.732504  
     268A      2.732999   269A      2.826320   270A      2.826799  
     271A      2.834233   272A      2.834698   273A      2.901060  
     274A      2.901531   275A      2.918066   276A      2.918547  
     277A      2.998640   278A      2.999186   279A      3.054800  
     280A      3.055299   281A      3.091833   282A      3.092428  
     283A      3.122212   284A      3.122693   285A      3.188418  
     286A      3.189004   287A      3.221494   288A      3.222022  
     289A      3.297344   290A      3.297903   291A      3.379724  
     292A      3.380212   293A      3.520203   294A      3.520751  
     295A      3.686051   296A      3.686288   297A      3.888796  
     298A      3.889235   299A      4.208904   300A      4.209301  
     301A      4.462729   302A      4.463027  

    Final Occupation by Irrep:
              A 
    DOCC [    36 ]

  @DF-RHF Final Energy:  -449.52476988986461

   => Energetics <=

    Nuclear Repulsion Energy =            366.0809673362533658
    One-Electron Energy =               -1332.6453882271900966
    Two-Electron Energy =                 517.0396510010721158
    Total Energy =                       -449.5247698898646149

Computation Completed


Properties will be evaluated at   0.000000,   0.000000,   0.000000 [a0]

Properties computed using the SCF density matrix

  Nuclear Dipole Moment: [e a0]
     X:   882.5079      Y:  -844.7690      Z:  1188.3328

  Electronic Dipole Moment: [e a0]
     X:  -882.6203      Y:   845.9642      Z: -1188.4575

  Dipole Moment: [e a0]
     X:    -0.1124      Y:     1.1952      Z:    -0.1247     Total:     1.2070

  Dipole Moment: [D]
     X:    -0.2858      Y:     3.0379      Z:    -0.3170     Total:     3.0678


*** tstop() called on ds1 at Mon Oct  4 14:41:33 2021
Module time:
	user time   =      22.43 seconds =       0.37 minutes
	system time =       0.56 seconds =       0.01 minutes
	total time  =          4 seconds =       0.07 minutes
Total time:
	user time   =      22.43 seconds =       0.37 minutes
	system time =       0.56 seconds =       0.01 minutes
	total time  =          4 seconds =       0.07 minutes

  //>>>>>>>>>>>>>>>>>>>>>>>>>>>>>>>>>>>//
  //            Monomer A HF           //
  //<<<<<<<<<<<<<<<<<<<<<<<<<<<<<<<<<<<//


*** tstart() called on ds1
*** at Mon Oct  4 14:41:33 2021

   => Loading Basis Set <=

    Name: AUG-CC-PVDZ
    Role: ORBITAL
    Keyword: BASIS
    atoms 1-2, 10-11 entry N          line   218 file /theoryfs2/ds/csargent/miniconda3/envs/cle/share/psi4/basis/aug-cc-pvdz.gbs 
    atoms 3-6, 12-15 entry H          line    40 file /theoryfs2/ds/csargent/miniconda3/envs/cle/share/psi4/basis/aug-cc-pvdz.gbs 
    atoms 7-9, 16-18 entry C          line   182 file /theoryfs2/ds/csargent/miniconda3/envs/cle/share/psi4/basis/aug-cc-pvdz.gbs 


         ---------------------------------------------------------
                                   SCF
               by Justin Turney, Rob Parrish, Andy Simmonett
                          and Daniel G. A. Smith
                              RHF Reference
                        6 Threads,   6675 MiB Core
         ---------------------------------------------------------

  ==> Geometry <==

    Molecular point group: c1
    Full point group: C1

    Geometry (in Bohr), charge = 0, multiplicity = 1:

       Center              X                  Y                   Z               Mass       
    ------------   -----------------  -----------------  -----------------  -----------------
         N            6.279812100000    -4.253033720000     0.193138650000    14.003074004430
         N            6.068707770000    -2.281256970000     1.805443170000    14.003074004430
         H            3.668711560000    -5.646289410000    -1.966840010000     1.007825032230
         H            0.690345210000    -2.375456940000    -0.428642360000     1.007825032230
         H            3.359174420000     0.176506010000     3.092650170000     1.007825032230
         H            7.352667820000    -1.994613110000     2.906807020000     1.007825032230
         C            3.779525860000    -1.215084530000     1.768581720000    12.000000000000
         C            2.382429980000    -2.555055380000     0.046076810000    12.000000000000
         C            4.017714680000    -4.384104900000    -0.887618630000    12.000000000000
      Gh(N)          18.274995320000   -21.386962500000    33.585645830000    14.003074004430
      Gh(N)          18.393857580000   -19.349055460000    32.048472110000    14.003074004430
      Gh(H)          20.948158060000   -23.787872470000    34.303676190000     1.007825032230
      Gh(H)          23.842794620000   -21.345333720000    31.548538680000     1.007825032230
      Gh(H)          20.906370540000   -17.632284710000    29.643902370000     1.007825032230
      Gh(H)          16.931449370000   -18.539078410000    31.662706790000     1.007825032230
      Gh(C)          20.676693990000   -19.018879800000    31.019423270000    12.000000000000
      Gh(C)          22.159686420000   -20.948552010000    31.909345730000    12.000000000000
      Gh(C)          20.598381090000   -22.333719820000    33.501043680000    12.000000000000

  Running in c1 symmetry.

  Rotational constants: A =      0.04198  B =      0.00047  C =      0.00046 [cm^-1]
  Rotational constants: A =   1258.60325  B =     14.00557  C =     13.89477 [MHz]
  Nuclear repulsion =  166.624056450327203

  Charge       = 0
  Multiplicity = 1
  Electrons    = 36
  Nalpha       = 18
  Nbeta        = 18

  ==> Algorithm <==

  SCF Algorithm Type is DF.
  DIIS enabled.
  MOM disabled.
  Fractional occupation disabled.
  Guess Type is SAD.
  Energy threshold   = 1.00e-10
  Density threshold  = 1.00e-10
  Integral threshold = 1.00e-12

  ==> Primary Basis <==

  Basis Set: AUG-CC-PVDZ
    Blend: AUG-CC-PVDZ
    Number of shells: 130
    Number of basis functions: 302
    Number of Cartesian functions: 322
    Spherical Harmonics?: true
    Max angular momentum: 2

   => Loading Basis Set <=

    Name: (AUG-CC-PVDZ AUX)
    Role: JKFIT
    Keyword: DF_BASIS_SCF
    atoms 1-2, 10-11 entry N          line   212 file /theoryfs2/ds/csargent/miniconda3/envs/cle/share/psi4/basis/aug-cc-pvdz-jkfit.gbs 
    atoms 3-6, 12-15 entry H          line    70 file /theoryfs2/ds/csargent/miniconda3/envs/cle/share/psi4/basis/aug-cc-pvdz-jkfit.gbs 
    atoms 7-9, 16-18 entry C          line   154 file /theoryfs2/ds/csargent/miniconda3/envs/cle/share/psi4/basis/aug-cc-pvdz-jkfit.gbs 

  ==> Integral Setup <==

  ==> DiskDFJK: Density-Fitted J/K Matrices <==

    J tasked:                  Yes
    K tasked:                  Yes
    wK tasked:                  No
    OpenMP threads:              6
    Integrals threads:           6
    Memory [MiB]:             5006
    Algorithm:                Core
    Integral Cache:           LOAD
    Schwarz Cutoff:          1E-12
    Fitting Condition:       1E-10

   => Auxiliary Basis Set <=

  Basis Set: (AUG-CC-PVDZ AUX)
    Blend: AUG-CC-PVDZ-JKFIT
    Number of shells: 376
    Number of basis functions: 1116
    Number of Cartesian functions: 1290
    Spherical Harmonics?: true
    Max angular momentum: 3

  Minimum eigenvalue in the overlap matrix is 3.0324469126E-05.
  Reciprocal condition number of the overlap matrix is 2.4867199235E-06.
    Using symmetric orthogonalization.

  ==> Pre-Iterations <==

  SCF Guess: Superposition of Atomic Densities via on-the-fly atomic UHF (no occupation information).

   -------------------------
    Irrep   Nso     Nmo    
   -------------------------
     A        302     302 
   -------------------------
    Total     302     302
   -------------------------

  ==> Iterations <==

                           Total Energy        Delta E     RMS |[F,P]|

   @DF-RHF iter SAD:  -224.72194801260360   -2.24722e+02   0.00000e+00 
   @DF-RHF iter   1:  -224.63549169996375    8.64563e-02   1.50472e-03 DIIS
   @DF-RHF iter   2:  -224.73984613269749   -1.04354e-01   6.88462e-04 DIIS
   @DF-RHF iter   3:  -224.76075487157226   -2.09087e-02   1.48626e-04 DIIS
   @DF-RHF iter   4:  -224.76213931535037   -1.38444e-03   6.05310e-05 DIIS
   @DF-RHF iter   5:  -224.76231767010907   -1.78355e-04   1.19893e-05 DIIS
   @DF-RHF iter   6:  -224.76233462758302   -1.69575e-05   4.96772e-06 DIIS
   @DF-RHF iter   7:  -224.76233858362090   -3.95604e-06   2.18806e-06 DIIS
   @DF-RHF iter   8:  -224.76233934436280   -7.60742e-07   1.01700e-06 DIIS
   @DF-RHF iter   9:  -224.76233951200487   -1.67642e-07   2.83302e-07 DIIS
   @DF-RHF iter  10:  -224.76233952082555   -8.82068e-09   8.55547e-08 DIIS
   @DF-RHF iter  11:  -224.76233952151495   -6.89397e-10   1.99714e-08 DIIS
   @DF-RHF iter  12:  -224.76233952156110   -4.61569e-11   5.81092e-09 DIIS
   @DF-RHF iter  13:  -224.76233952156548   -4.37694e-12   2.83097e-09 DIIS
   @DF-RHF iter  14:  -224.76233952156622   -7.38964e-13   9.75190e-10 DIIS
   @DF-RHF iter  15:  -224.76233952156682   -5.96856e-13   4.15548e-10 DIIS
   @DF-RHF iter  16:  -224.76233952156718   -3.69482e-13   1.25998e-10 DIIS
   @DF-RHF iter  17:  -224.76233952156662    5.68434e-13   4.47782e-11 DIIS
  Energy and wave function converged.


  ==> Post-Iterations <==

    Orbital Energies [Eh]
    ---------------------

    Doubly Occupied:                                                      

       1A    -15.636223     2A    -15.592313     3A    -11.279894  
       4A    -11.237784     5A    -11.209891     6A     -1.386922  
       7A     -1.121901     8A     -1.066898     9A     -0.872768  
      10A     -0.837061    11A     -0.757292    12A     -0.645746  
      13A     -0.620834    14A     -0.609140    15A     -0.583920  
      16A     -0.461404    17A     -0.370721    18A     -0.346048  

    Virtual:                                                              

      19A      0.022704    20A      0.030764    21A      0.040034  
      22A      0.042368    23A      0.044171    24A      0.049159  
      25A      0.063520    26A      0.065877    27A      0.084008  
      28A      0.090763    29A      0.098980    30A      0.100998  
      31A      0.104029    32A      0.117179    33A      0.118371  
      34A      0.125882    35A      0.126270    36A      0.128281  
      37A      0.133069    38A      0.133395    39A      0.134178  
      40A      0.138403    41A      0.141490    42A      0.156889  
      43A      0.158589    44A      0.164592    45A      0.165972  
      46A      0.171075    47A      0.178408    48A      0.179205  
      49A      0.195524    50A      0.196042    51A      0.201506  
      52A      0.204793    53A      0.206162    54A      0.222967  
      55A      0.225161    56A      0.228286    57A      0.235591  
      58A      0.240236    59A      0.243626    60A      0.244965  
      61A      0.264105    62A      0.271010    63A      0.271127  
      64A      0.279080    65A      0.301010    66A      0.321962  
      67A      0.325148    68A      0.340124    69A      0.352358  
      70A      0.355357    71A      0.366577    72A      0.372949  
      73A      0.374907    74A      0.383767    75A      0.396061  
      76A      0.402741    77A      0.414998    78A      0.427507  
      79A      0.432113    80A      0.432132    81A      0.441236  
      82A      0.442379    83A      0.443385    84A      0.453393  
      85A      0.456042    86A      0.457465    87A      0.459816  
      88A      0.461911    89A      0.478655    90A      0.498543  
      91A      0.508690    92A      0.509762    93A      0.519443  
      94A      0.521917    95A      0.533160    96A      0.538094  
      97A      0.541560    98A      0.559366    99A      0.568841  
     100A      0.571894   101A      0.574432   102A      0.586318  
     103A      0.590538   104A      0.595204   105A      0.602413  
     106A      0.613427   107A      0.620953   108A      0.621298  
     109A      0.633580   110A      0.646110   111A      0.655295  
     112A      0.676162   113A      0.690875   114A      0.698041  
     115A      0.700391   116A      0.707846   117A      0.719504  
     118A      0.721667   119A      0.725115   120A      0.735724  
     121A      0.745432   122A      0.747709   123A      0.758592  
     124A      0.773318   125A      0.781481   126A      0.789754  
     127A      0.798162   128A      0.814497   129A      0.820995  
     130A      0.828504   131A      0.838230   132A      0.848394  
     133A      0.852013   134A      0.855156   135A      0.871071  
     136A      0.881153   137A      0.881395   138A      0.888767  
     139A      0.895752   140A      0.906950   141A      0.916208  
     142A      0.924815   143A      0.942582   144A      0.952176  
     145A      0.978222   146A      0.984850   147A      0.997259  
     148A      1.011149   149A      1.024267   150A      1.030315  
     151A      1.046606   152A      1.051722   153A      1.066503  
     154A      1.071216   155A      1.081099   156A      1.100852  
     157A      1.108306   158A      1.128058   159A      1.134196  
     160A      1.150235   161A      1.158910   162A      1.166421  
     163A      1.175168   164A      1.185103   165A      1.220548  
     166A      1.221855   167A      1.237180   168A      1.268109  
     169A      1.269556   170A      1.293878   171A      1.303342  
     172A      1.311399   173A      1.315293   174A      1.340820  
     175A      1.365807   176A      1.381987   177A      1.401043  
     178A      1.435145   179A      1.444891   180A      1.474691  
     181A      1.493348   182A      1.507206   183A      1.512027  
     184A      1.526129   185A      1.560989   186A      1.590882  
     187A      1.608669   188A      1.637437   189A      1.669472  
     190A      1.676867   191A      1.689036   192A      1.703634  
     193A      1.723950   194A      1.749215   195A      1.764373  
     196A      1.805048   197A      1.875632   198A      1.932390  
     199A      1.943558   200A      1.988067   201A      2.021445  
     202A      2.041242   203A      2.057611   204A      2.088839  
     205A      2.109244   206A      2.134965   207A      2.144687  
     208A      2.168294   209A      2.190005   210A      2.200827  
     211A      2.216786   212A      2.230457   213A      2.234032  
     214A      2.262040   215A      2.275825   216A      2.277899  
     217A      2.289433   218A      2.307640   219A      2.335807  
     220A      2.360716   221A      2.380773   222A      2.389130  
     223A      2.393822   224A      2.394706   225A      2.435246  
     226A      2.444036   227A      2.464967   228A      2.478466  
     229A      2.500118   230A      2.513816   231A      2.531798  
     232A      2.548994   233A      2.570232   234A      2.584716  
     235A      2.631502   236A      2.642961   237A      2.667698  
     238A      2.703195   239A      2.719057   240A      2.733029  
     241A      2.826838   242A      2.828118   243A      2.834751  
     244A      2.869977   245A      2.890195   246A      2.901587  
     247A      2.918598   248A      2.945266   249A      2.999157  
     250A      3.028154   251A      3.055324   252A      3.089921  
     253A      3.092358   254A      3.122730   255A      3.140221  
     256A      3.182057   257A      3.188930   258A      3.222008  
     259A      3.254333   260A      3.289302   261A      3.297865  
     262A      3.355835   263A      3.380235   264A      3.395806  
     265A      3.423574   266A      3.448394   267A      3.487384  
     268A      3.497737   269A      3.520727   270A      3.633804  
     271A      3.667140   272A      3.686563   273A      3.735810  
     274A      3.770305   275A      3.851314   276A      3.889327  
     277A      3.964726   278A      4.035818   279A      4.094947  
     280A      4.209428   281A      4.244258   282A      4.448438  
     283A      4.463235   284A      4.658667   285A      4.708344  
     286A      4.750131   287A      4.811021   288A      4.995041  
     289A      5.076902   290A      5.241433   291A      5.531666  
     292A      5.669214   293A      5.826840   294A      6.107219  
     295A      6.318388   296A      6.707773   297A      6.967687  
     298A     18.111372   299A     18.648254   300A     19.373886  
     301A     25.245628   302A     25.705514  

    Final Occupation by Irrep:
              A 
    DOCC [    18 ]

  @DF-RHF Final Energy:  -224.76233952156662

   => Energetics <=

    Nuclear Repulsion Energy =            166.6240564503272026
    One-Electron Energy =                -633.4992733867812831
    Two-Electron Energy =                 242.1128774148874641
    Total Energy =                       -224.7623395215666164

Computation Completed


Properties will be evaluated at   0.000000,   0.000000,   0.000000 [a0]

Properties computed using the SCF density matrix

  Nuclear Dipole Moment: [e a0]
     X:   162.5886      Y:  -104.5054      Z:    23.1563

  Electronic Dipole Moment: [e a0]
     X:  -162.9913      Y:   105.1370      Z:   -22.5767

  Dipole Moment: [e a0]
     X:    -0.4027      Y:     0.6317      Z:     0.5796     Total:     0.9472

  Dipole Moment: [D]
     X:    -1.0235      Y:     1.6055      Z:     1.4733     Total:     2.4075


*** tstop() called on ds1 at Mon Oct  4 14:41:37 2021
Module time:
	user time   =      16.26 seconds =       0.27 minutes
	system time =       0.32 seconds =       0.01 minutes
	total time  =          4 seconds =       0.07 minutes
Total time:
	user time   =      38.72 seconds =       0.65 minutes
	system time =       0.88 seconds =       0.01 minutes
	total time  =          8 seconds =       0.13 minutes

  //>>>>>>>>>>>>>>>>>>>>>>>>>>>>>>>>>>>//
  //            Monomer B HF           //
  //<<<<<<<<<<<<<<<<<<<<<<<<<<<<<<<<<<<//


*** tstart() called on ds1
*** at Mon Oct  4 14:41:37 2021

   => Loading Basis Set <=

    Name: AUG-CC-PVDZ
    Role: ORBITAL
    Keyword: BASIS
    atoms 1-2, 10-11 entry N          line   218 file /theoryfs2/ds/csargent/miniconda3/envs/cle/share/psi4/basis/aug-cc-pvdz.gbs 
    atoms 3-6, 12-15 entry H          line    40 file /theoryfs2/ds/csargent/miniconda3/envs/cle/share/psi4/basis/aug-cc-pvdz.gbs 
    atoms 7-9, 16-18 entry C          line   182 file /theoryfs2/ds/csargent/miniconda3/envs/cle/share/psi4/basis/aug-cc-pvdz.gbs 


         ---------------------------------------------------------
                                   SCF
               by Justin Turney, Rob Parrish, Andy Simmonett
                          and Daniel G. A. Smith
                              RHF Reference
                        6 Threads,   6675 MiB Core
         ---------------------------------------------------------

  ==> Geometry <==

    Molecular point group: c1
    Full point group: C1

    Geometry (in Bohr), charge = 0, multiplicity = 1:

       Center              X                  Y                   Z               Mass       
    ------------   -----------------  -----------------  -----------------  -----------------
      Gh(N)           6.279812100000    -4.253033720000     0.193138650000    14.003074004430
      Gh(N)           6.068707770000    -2.281256970000     1.805443170000    14.003074004430
      Gh(H)           3.668711560000    -5.646289410000    -1.966840010000     1.007825032230
      Gh(H)           0.690345210000    -2.375456940000    -0.428642360000     1.007825032230
      Gh(H)           3.359174420000     0.176506010000     3.092650170000     1.007825032230
      Gh(H)           7.352667820000    -1.994613110000     2.906807020000     1.007825032230
      Gh(C)           3.779525860000    -1.215084530000     1.768581720000    12.000000000000
      Gh(C)           2.382429980000    -2.555055380000     0.046076810000    12.000000000000
      Gh(C)           4.017714680000    -4.384104900000    -0.887618630000    12.000000000000
         N           18.274995320000   -21.386962500000    33.585645830000    14.003074004430
         N           18.393857580000   -19.349055460000    32.048472110000    14.003074004430
         H           20.948158060000   -23.787872470000    34.303676190000     1.007825032230
         H           23.842794620000   -21.345333720000    31.548538680000     1.007825032230
         H           20.906370540000   -17.632284710000    29.643902370000     1.007825032230
         H           16.931449370000   -18.539078410000    31.662706790000     1.007825032230
         C           20.676693990000   -19.018879800000    31.019423270000    12.000000000000
         C           22.159686420000   -20.948552010000    31.909345730000    12.000000000000
         C           20.598381090000   -22.333719820000    33.501043680000    12.000000000000

  Running in c1 symmetry.

  Rotational constants: A =      0.04198  B =      0.00047  C =      0.00046 [cm^-1]
  Rotational constants: A =   1258.60325  B =     14.00557  C =     13.89477 [MHz]
  Nuclear repulsion =  166.628602806584183

  Charge       = 0
  Multiplicity = 1
  Electrons    = 36
  Nalpha       = 18
  Nbeta        = 18

  ==> Algorithm <==

  SCF Algorithm Type is DF.
  DIIS enabled.
  MOM disabled.
  Fractional occupation disabled.
  Guess Type is SAD.
  Energy threshold   = 1.00e-10
  Density threshold  = 1.00e-10
  Integral threshold = 1.00e-12

  ==> Primary Basis <==

  Basis Set: AUG-CC-PVDZ
    Blend: AUG-CC-PVDZ
    Number of shells: 130
    Number of basis functions: 302
    Number of Cartesian functions: 322
    Spherical Harmonics?: true
    Max angular momentum: 2

   => Loading Basis Set <=

    Name: (AUG-CC-PVDZ AUX)
    Role: JKFIT
    Keyword: DF_BASIS_SCF
    atoms 1-2, 10-11 entry N          line   212 file /theoryfs2/ds/csargent/miniconda3/envs/cle/share/psi4/basis/aug-cc-pvdz-jkfit.gbs 
    atoms 3-6, 12-15 entry H          line    70 file /theoryfs2/ds/csargent/miniconda3/envs/cle/share/psi4/basis/aug-cc-pvdz-jkfit.gbs 
    atoms 7-9, 16-18 entry C          line   154 file /theoryfs2/ds/csargent/miniconda3/envs/cle/share/psi4/basis/aug-cc-pvdz-jkfit.gbs 

  ==> Integral Setup <==

  ==> DiskDFJK: Density-Fitted J/K Matrices <==

    J tasked:                  Yes
    K tasked:                  Yes
    wK tasked:                  No
    OpenMP threads:              6
    Integrals threads:           6
    Memory [MiB]:             5006
    Algorithm:                Core
    Integral Cache:           LOAD
    Schwarz Cutoff:          1E-12
    Fitting Condition:       1E-10

   => Auxiliary Basis Set <=

  Basis Set: (AUG-CC-PVDZ AUX)
    Blend: AUG-CC-PVDZ-JKFIT
    Number of shells: 376
    Number of basis functions: 1116
    Number of Cartesian functions: 1290
    Spherical Harmonics?: true
    Max angular momentum: 3

  Minimum eigenvalue in the overlap matrix is 3.0324469126E-05.
  Reciprocal condition number of the overlap matrix is 2.4867199235E-06.
    Using symmetric orthogonalization.

  ==> Pre-Iterations <==

  SCF Guess: Superposition of Atomic Densities via on-the-fly atomic UHF (no occupation information).

   -------------------------
    Irrep   Nso     Nmo    
   -------------------------
     A        302     302 
   -------------------------
    Total     302     302
   -------------------------

  ==> Iterations <==

                           Total Energy        Delta E     RMS |[F,P]|

   @DF-RHF iter SAD:  -224.72250854931525   -2.24723e+02   0.00000e+00 
   @DF-RHF iter   1:  -224.63556596287995    8.69426e-02   1.50490e-03 DIIS
   @DF-RHF iter   2:  -224.73993305047546   -1.04367e-01   6.88620e-04 DIIS
   @DF-RHF iter   3:  -224.76085080388350   -2.09178e-02   1.48614e-04 DIIS
   @DF-RHF iter   4:  -224.76223500253738   -1.38420e-03   6.05151e-05 DIIS
   @DF-RHF iter   5:  -224.76241324704020   -1.78245e-04   1.19848e-05 DIIS
   @DF-RHF iter   6:  -224.76243018018982   -1.69331e-05   4.96323e-06 DIIS
   @DF-RHF iter   7:  -224.76243412803302   -3.94784e-06   2.18627e-06 DIIS
   @DF-RHF iter   8:  -224.76243488757154   -7.59539e-07   1.01631e-06 DIIS
   @DF-RHF iter   9:  -224.76243505507654   -1.67505e-07   2.83280e-07 DIIS
   @DF-RHF iter  10:  -224.76243506389395   -8.81741e-09   8.55270e-08 DIIS
   @DF-RHF iter  11:  -224.76243506458366   -6.89710e-10   1.99678e-08 DIIS
   @DF-RHF iter  12:  -224.76243506462956   -4.59011e-11   5.80973e-09 DIIS
   @DF-RHF iter  13:  -224.76243506463359   -4.03588e-12   2.83582e-09 DIIS
   @DF-RHF iter  14:  -224.76243506463484   -1.25056e-12   9.79833e-10 DIIS
   @DF-RHF iter  15:  -224.76243506463510   -2.55795e-13   4.16537e-10 DIIS
   @DF-RHF iter  16:  -224.76243506463462    4.83169e-13   1.25808e-10 DIIS
   @DF-RHF iter  17:  -224.76243506463496   -3.41061e-13   4.47600e-11 DIIS
  Energy and wave function converged.


  ==> Post-Iterations <==

    Orbital Energies [Eh]
    ---------------------

    Doubly Occupied:                                                      

       1A    -15.636233     2A    -15.592291     3A    -11.279903  
       4A    -11.237759     5A    -11.209884     6A     -1.387001  
       7A     -1.121894     8A     -1.066928     9A     -0.872759  
      10A     -0.837039    11A     -0.757272    12A     -0.645745  
      13A     -0.620828    14A     -0.609177    15A     -0.583905  
      16A     -0.461413    17A     -0.370715    18A     -0.346055  

    Virtual:                                                              

      19A      0.022199    20A      0.030764    21A      0.039557  
      22A      0.042369    23A      0.043658    24A      0.049158  
      25A      0.063519    26A      0.065377    27A      0.083504  
      28A      0.090251    29A      0.098483    30A      0.101001  
      31A      0.104028    32A      0.117186    33A      0.117909  
      34A      0.125386    35A      0.126272    36A      0.127812  
      37A      0.132910    38A      0.133070    39A      0.133665  
      40A      0.138399    41A      0.141487    42A      0.156889  
      43A      0.158128    44A      0.164594    45A      0.165483  
      46A      0.171081    47A      0.178407    48A      0.178707  
      49A      0.194982    50A      0.196040    51A      0.200972  
      52A      0.204806    53A      0.206166    54A      0.222425  
      55A      0.224676    56A      0.227791    57A      0.235066  
      58A      0.240240    59A      0.243627    60A      0.244965  
      61A      0.263594    62A      0.270490    63A      0.271138  
      64A      0.279081    65A      0.301024    66A      0.321452  
      67A      0.325138    68A      0.339624    69A      0.352354  
      70A      0.355359    71A      0.366066    72A      0.372460  
      73A      0.374909    74A      0.383278    75A      0.396062  
      76A      0.402744    77A      0.415005    78A      0.426995  
      79A      0.431608    80A      0.432131    81A      0.440756  
      82A      0.441898    83A      0.443379    84A      0.453414  
      85A      0.455511    86A      0.456968    87A      0.459816  
      88A      0.461404    89A      0.478656    90A      0.498544  
      91A      0.508693    92A      0.509249    93A      0.518921  
      94A      0.521953    95A      0.532636    96A      0.537607  
      97A      0.541569    98A      0.558858    99A      0.568299  
     100A      0.571404   101A      0.574428   102A      0.586322  
     103A      0.590547   104A      0.594734   105A      0.602431  
     106A      0.612934   107A      0.620779   108A      0.620974  
     109A      0.633071   110A      0.646111   111A      0.655304  
     112A      0.676168   113A      0.690392   114A      0.698039  
     115A      0.700384   116A      0.707356   117A      0.718993  
     118A      0.721648   119A      0.725121   120A      0.735223  
     121A      0.744937   122A      0.747717   123A      0.758643  
     124A      0.773300   125A      0.781476   126A      0.789240  
     127A      0.797647   128A      0.814015   129A      0.820489  
     130A      0.828513   131A      0.838238   132A      0.848382  
     133A      0.851518   134A      0.854653   135A      0.870596  
     136A      0.880640   137A      0.881396   138A      0.888762  
     139A      0.895245   140A      0.906950   141A      0.915698  
     142A      0.924803   143A      0.942599   144A      0.951645  
     145A      0.978204   146A      0.984853   147A      0.996744  
     148A      1.011170   149A      1.023776   150A      1.029802  
     151A      1.046624   152A      1.051215   153A      1.066503  
     154A      1.070739   155A      1.080613   156A      1.100853  
     157A      1.107760   158A      1.128099   159A      1.134152  
     160A      1.150240   161A      1.158377   162A      1.165895  
     163A      1.175167   164A      1.184595   165A      1.220538  
     166A      1.221290   167A      1.236632   168A      1.267600  
     169A      1.269573   170A      1.293318   171A      1.303390  
     172A      1.311431   173A      1.314767   174A      1.340319  
     175A      1.365802   176A      1.381469   177A      1.401039  
     178A      1.434597   179A      1.444326   180A      1.474706  
     181A      1.492837   182A      1.506636   183A      1.512021  
     184A      1.526136   185A      1.560976   186A      1.590889  
     187A      1.608679   188A      1.637435   189A      1.669494  
     190A      1.676332   191A      1.688507   192A      1.703636  
     193A      1.723957   194A      1.749249   195A      1.764367  
     196A      1.805025   197A      1.875589   198A      1.932406  
     199A      1.943562   200A      1.988139   201A      2.021453  
     202A      2.040756   203A      2.057662   204A      2.088810  
     205A      2.108742   206A      2.134520   207A      2.144708  
     208A      2.167821   209A      2.189999   210A      2.200828  
     211A      2.216313   212A      2.230454   213A      2.233549  
     214A      2.261547   215A      2.275832   216A      2.277445  
     217A      2.288943   218A      2.307637   219A      2.335374  
     220A      2.360646   221A      2.380267   222A      2.389121  
     223A      2.393758   224A      2.394204   225A      2.435199  
     226A      2.443551   227A      2.464942   228A      2.478009  
     229A      2.499600   230A      2.513210   231A      2.531785  
     232A      2.548501   233A      2.570195   234A      2.584820  
     235A      2.631002   236A      2.642959   237A      2.667171  
     238A      2.702656   239A      2.718553   240A      2.733013  
     241A      2.826807   242A      2.827588   243A      2.834707  
     244A      2.869422   245A      2.889705   246A      2.901543  
     247A      2.918563   248A      2.944812   249A      2.999195  
     250A      3.027732   251A      3.055311   252A      3.089489  
     253A      3.092440   254A      3.122703   255A      3.139710  
     256A      3.181631   257A      3.189011   258A      3.222030  
     259A      3.253785   260A      3.288840   261A      3.297913  
     262A      3.355402   263A      3.380219   264A      3.395242  
     265A      3.423110   266A      3.447964   267A      3.486827  
     268A      3.497193   269A      3.520764   270A      3.633208  
     271A      3.666596   272A      3.686295   273A      3.735284  
     274A      3.769713   275A      3.850771   276A      3.889250  
     277A      3.964072   278A      4.035136   279A      4.094399  
     280A      4.209312   281A      4.243736   282A      4.448089  
     283A      4.463032   284A      4.658059   285A      4.707674  
     286A      4.749611   287A      4.810433   288A      4.994530  
     289A      5.076450   290A      5.241113   291A      5.530902  
     292A      5.668586   293A      5.826502   294A      6.106351  
     295A      6.318036   296A      6.708069   297A      6.967508  
     298A     18.110891   299A     18.647551   300A     19.373289  
     301A     25.245186   302A     25.704573  

    Final Occupation by Irrep:
              A 
    DOCC [    18 ]

  @DF-RHF Final Energy:  -224.76243506463496

   => Energetics <=

    Nuclear Repulsion Energy =            166.6286028065841833
    One-Electron Energy =                -633.5084734026371507
    Two-Electron Energy =                 242.1174355314180104
    Total Energy =                       -224.7624350646349569

Computation Completed


Properties will be evaluated at   0.000000,   0.000000,   0.000000 [a0]

Properties computed using the SCF density matrix

  Nuclear Dipole Moment: [e a0]
     X:   719.9193      Y:  -740.2636      Z:  1165.1765

  Electronic Dipole Moment: [e a0]
     X:  -719.6284      Y:   740.8276      Z: -1165.8796

  Dipole Moment: [e a0]
     X:     0.2909      Y:     0.5640      Z:    -0.7031     Total:     0.9472

  Dipole Moment: [D]
     X:     0.7394      Y:     1.4336      Z:    -1.7871     Total:     2.4074


*** tstop() called on ds1 at Mon Oct  4 14:41:41 2021
Module time:
	user time   =      16.89 seconds =       0.28 minutes
	system time =       0.37 seconds =       0.01 minutes
	total time  =          4 seconds =       0.07 minutes
Total time:
	user time   =      55.69 seconds =       0.93 minutes
	system time =       1.26 seconds =       0.02 minutes
	total time  =         12 seconds =       0.20 minutes
  Constructing Basis Sets for SAPT...

   => Loading Basis Set <=

    Name: (AUG-CC-PVDZ AUX)
    Role: RIFIT
    Keyword: DF_BASIS_SAPT
    atoms 1-2, 10-11 entry N          line   158 file /theoryfs2/ds/csargent/miniconda3/envs/cle/share/psi4/basis/aug-cc-pvdz-ri.gbs 
    atoms 3-6, 12-15 entry H          line    30 file /theoryfs2/ds/csargent/miniconda3/envs/cle/share/psi4/basis/aug-cc-pvdz-ri.gbs 
    atoms 7-9, 16-18 entry C          line   112 file /theoryfs2/ds/csargent/miniconda3/envs/cle/share/psi4/basis/aug-cc-pvdz-ri.gbs 


  //>>>>>>>>>>>>>>>>>>>>>>>>>>>>>>>>>>>//
  //               SAPT0               //
  //<<<<<<<<<<<<<<<<<<<<<<<<<<<<<<<<<<<//


*** tstart() called on ds1
*** at Mon Oct  4 14:41:41 2021

        SAPT0  
    Ed Hohenstein
     6 June 2009

      Orbital Information
  --------------------------
    NSO        =       302
    NMO        =       302
    NRI        =       904
    NOCC A     =        18
    NOCC B     =        18
    FOCC A     =         5
    FOCC B     =         5
    NVIR A     =       284
    NVIR B     =       284

    Elst10,r            =     0.000004682322 [Eh]
    Exch10              =     0.000000000000 [Eh]
    Exch10 (S^2)        =     0.000000000000 [Eh]

    Iter     Energy [mEh]          dE [mEh]         Residual      Time [s]
       1      -0.00001994       0.000019936       0.051043021             0
       2      -0.00001801      -0.000001928       0.011521417             0
       3      -0.00001955       0.000001539       0.004697074             0
       4      -0.00001984       0.000000296       0.001296983             0
       5      -0.00001980      -0.000000038       0.000763996             0
       6      -0.00001977      -0.000000029       0.000242185             0
       7      -0.00001978       0.000000002       0.000100985             1
       8      -0.00001978       0.000000003       0.000040152             1
       9      -0.00001978       0.000000000       0.000012887             1
      10      -0.00001978      -0.000000001       0.000003249             1
      11      -0.00001978       0.000000000       0.000001628             1
      12      -0.00001978       0.000000000       0.000000509             1

    CHF Iterations converged


    Iter     Energy [mEh]          dE [mEh]         Residual      Time [s]
       1      -0.00000664       0.000006644       0.026275715             0
       2      -0.00000604      -0.000000600       0.006450463             0
       3      -0.00000643       0.000000383       0.003006523             1
       4      -0.00000659       0.000000163       0.000572198             1
       5      -0.00000658      -0.000000012       0.000272222             1
       6      -0.00000657      -0.000000007       0.000086380             1
       7      -0.00000657       0.000000000       0.000036652             1
       8      -0.00000657       0.000000001       0.000016036             1
       9      -0.00000657       0.000000000       0.000004964             1
      10      -0.00000657      -0.000000000       0.000001556             1
      11      -0.00000657       0.000000000       0.000000595             2

    CHF Iterations converged

    Ind20,r (A<-B)      =    -0.000000019779 [Eh]
    Ind20,r (B<-A)      =    -0.000000006573 [Eh]
    Ind20,r             =    -0.000000026352 [Eh]
    Exch-Ind20,r (A<-B) =     0.000000000000 [Eh]
    Exch-Ind20,r (B<-A) =     0.000000000000 [Eh]
    Exch-Ind20,r        =     0.000000000000 [Eh]
    Disp20              =    -0.000000298906 [Eh]
    Disp20 (SS)         =    -0.000000149453 [Eh]
    Disp20 (OS)         =    -0.000000149453 [Eh]
    Exch-Disp20         =     0.000000000000 [Eh]
    Exch-Disp20 (SS)    =     0.000000000000 [Eh]
    Exch-Disp20 (OS)    =     0.000000000000 [Eh]

    SAPT Results 
  --------------------------------------------------------------------------------------------------------
    Electrostatics                  0.00468232 [mEh]       0.00293820 [kcal/mol]       0.01229343 [kJ/mol]
      Elst10,r                      0.00468232 [mEh]       0.00293820 [kcal/mol]       0.01229343 [kJ/mol]

    Exchange                        0.00000000 [mEh]       0.00000000 [kcal/mol]       0.00000000 [kJ/mol]
      Exch10                        0.00000000 [mEh]       0.00000000 [kcal/mol]       0.00000000 [kJ/mol]
      Exch10(S^2)                   0.00000000 [mEh]       0.00000000 [kcal/mol]       0.00000000 [kJ/mol]

    Induction                       0.00001402 [mEh]       0.00000879 [kcal/mol]       0.00003680 [kJ/mol]
      Ind20,r                      -0.00002635 [mEh]      -0.00001654 [kcal/mol]      -0.00006919 [kJ/mol]
      Exch-Ind20,r                  0.00000000 [mEh]       0.00000000 [kcal/mol]       0.00000000 [kJ/mol]
      delta HF,r (2)                0.00004037 [mEh]       0.00002533 [kcal/mol]       0.00010599 [kJ/mol]

    Dispersion                     -0.00029891 [mEh]      -0.00018757 [kcal/mol]      -0.00078478 [kJ/mol]
      Disp20                       -0.00029891 [mEh]      -0.00018757 [kcal/mol]      -0.00078478 [kJ/mol]
      Exch-Disp20                   0.00000000 [mEh]       0.00000000 [kcal/mol]       0.00000000 [kJ/mol]
      Disp20 (SS)                  -0.00014945 [mEh]      -0.00009378 [kcal/mol]      -0.00039239 [kJ/mol]
      Disp20 (OS)                  -0.00014945 [mEh]      -0.00009378 [kcal/mol]      -0.00039239 [kJ/mol]
      Exch-Disp20 (SS)              0.00000000 [mEh]       0.00000000 [kcal/mol]       0.00000000 [kJ/mol]
      Exch-Disp20 (OS)              0.00000000 [mEh]       0.00000000 [kcal/mol]       0.00000000 [kJ/mol]

  Total HF                          0.00469634 [mEh]       0.00294700 [kcal/mol]       0.01233023 [kJ/mol]
  Total SAPT0                       0.00439743 [mEh]       0.00275943 [kcal/mol]       0.01154545 [kJ/mol]

  Special recipe for scaled SAPT0 (see Manual):
    Electrostatics sSAPT0           0.00468232 [mEh]       0.00293820 [kcal/mol]       0.01229343 [kJ/mol]
    Exchange sSAPT0                 0.00000000 [mEh]       0.00000000 [kcal/mol]       0.00000000 [kJ/mol]
    Induction sSAPT0                0.00001402 [mEh]       0.00000879 [kcal/mol]       0.00003680 [kJ/mol]
    Dispersion sSAPT0              -0.00029891 [mEh]      -0.00018757 [kcal/mol]      -0.00078478 [kJ/mol]
  Total sSAPT0                      0.00439743 [mEh]       0.00275943 [kcal/mol]       0.01154545 [kJ/mol]
  --------------------------------------------------------------------------------------------------------

*** tstop() called on ds1 at Mon Oct  4 14:41:50 2021
Module time:
	user time   =      44.89 seconds =       0.75 minutes
	system time =       3.91 seconds =       0.07 minutes
	total time  =          9 seconds =       0.15 minutes
Total time:
	user time   =     101.35 seconds =       1.69 minutes
	system time =       5.19 seconds =       0.09 minutes
	total time  =         21 seconds =       0.35 minutes


Warning! sapt0 does not have an associated derived wavefunction.The returned wavefunction is the dimer SCF wavefunction.


    Psi4 stopped on: Monday, 04 October 2021 02:41PM
    Psi4 wall time for execution: 0:00:21.55

*** Psi4 exiting successfully. Buy a developer a beer!
