
    -----------------------------------------------------------------------
          Psi4: An Open-Source Ab Initio Electronic Structure Package
                               Psi4 1.4rc3 

                         Git: Rev {HEAD} 080dba6 


    D. G. A. Smith, L. A. Burns, A. C. Simmonett, R. M. Parrish,
    M. C. Schieber, R. Galvelis, P. Kraus, H. Kruse, R. Di Remigio,
    A. Alenaizan, A. M. James, S. Lehtola, J. P. Misiewicz, M. Scheurer,
    R. A. Shaw, J. B. Schriber, Y. Xie, Z. L. Glick, D. A. Sirianni,
    J. S. O'Brien, J. M. Waldrop, A. Kumar, E. G. Hohenstein,
    B. P. Pritchard, B. R. Brooks, H. F. Schaefer III, A. Yu. Sokolov,
    K. Patkowski, A. E. DePrince III, U. Bozkaya, R. A. King,
    F. A. Evangelista, J. M. Turney, T. D. Crawford, C. D. Sherrill,
    J. Chem. Phys. 152(18) 184108 (2020). https://doi.org/10.1063/5.0006002

                            Additional Code Authors
    E. T. Seidl, C. L. Janssen, E. F. Valeev, M. L. Leininger,
    J. F. Gonthier, R. M. Richard, H. R. McAlexander, M. Saitow, X. Wang,
    P. Verma, and M. H. Lechner

             Previous Authors, Complete List of Code Contributors,
                       and Citations for Specific Modules
    https://github.com/psi4/psi4/blob/master/codemeta.json
    https://github.com/psi4/psi4/graphs/contributors
    http://psicode.org/psi4manual/master/introduction.html#citing-psifour

    -----------------------------------------------------------------------


    Psi4 started on: Monday, 04 October 2021 01:19PM

    Process ID: 7439
    Host:       ds1
    PSIDATADIR: /theoryfs2/ds/csargent/miniconda3/envs/cle/share/psi4
    Memory:     500.0 MiB
    Threads:    6
    
  ==> Input File <==

--------------------------------------------------------------------------
# PSI4 file produced by CrystaLattE

# Generated from:               pyrazole.xyz
# Psithon input for N-mer:      2mer-0+67
# Number of atoms per monomer:  [9, 9]
# Number of replicas:           1
# COM priority:                 7.601562523484e-05
# Minimum COM separations:      12.492 
# Separation priority:          1.949930906222e-04
# Minimum monomer separations:  9.126 
# Cutoff priority:              1.130730127561e-05
# Nuclear repulsion energy:     388.43759680172775

memory 7 GB

molecule Dimer_0_67 {
  N            6.27981210      -4.25303372       0.19313865 
  N            6.06870777      -2.28125697       1.80544317 
  H            3.66871156      -5.64628941      -1.96684001 
  H            0.69034521      -2.37545694      -0.42864236 
  H            3.35917442       0.17650601       3.09265017 
  H            7.35266782      -1.99461311       2.90680702 
  C            3.77952586      -1.21508453       1.76858172 
  C            2.38242998      -2.55505538       0.04607681 
  C            4.01771468      -4.38410490      -0.88761863 
--
  N          -12.67871861     -14.18732502     -11.21125683 
  N          -12.55985635     -16.22523205     -12.74843055 
  H          -10.00555588     -11.78641505     -10.49322648 
  H           -7.11091932     -14.22895380     -13.24836399 
  H          -10.04734339     -17.94200281     -15.15300030 
  H          -14.02226457     -17.03520911     -13.13419588 
  C          -10.27701995     -16.55540772     -13.77747940 
  C           -8.79402751     -14.62573551     -12.88755693 
  C          -10.35533284     -13.24056769     -11.29585899 
units = au
no_com
no_reorient
}

set {
  e_convergence 10
  d_convergence 10
  scf_type df
  mp2_type df
  cc_type df
  freeze_core true
}

energy('sapt0/aug-cc-pvdz')

--------------------------------------------------------------------------

  Memory set to   6.519 GiB by Python driver.

Scratch directory: /scratch/csargent/psi4.7158.66302/

Scratch directory: /scratch/csargent/psi4.7158.66302/

  //>>>>>>>>>>>>>>>>>>>>>>>>>>>>>>>>>>>//
  //              Dimer HF             //
  //<<<<<<<<<<<<<<<<<<<<<<<<<<<<<<<<<<<//


*** tstart() called on ds1
*** at Mon Oct  4 13:19:51 2021

   => Loading Basis Set <=

    Name: AUG-CC-PVDZ
    Role: ORBITAL
    Keyword: BASIS
    atoms 1-2, 10-11 entry N          line   218 file /theoryfs2/ds/csargent/miniconda3/envs/cle/share/psi4/basis/aug-cc-pvdz.gbs 
    atoms 3-6, 12-15 entry H          line    40 file /theoryfs2/ds/csargent/miniconda3/envs/cle/share/psi4/basis/aug-cc-pvdz.gbs 
    atoms 7-9, 16-18 entry C          line   182 file /theoryfs2/ds/csargent/miniconda3/envs/cle/share/psi4/basis/aug-cc-pvdz.gbs 


         ---------------------------------------------------------
                                   SCF
               by Justin Turney, Rob Parrish, Andy Simmonett
                          and Daniel G. A. Smith
                              RHF Reference
                        6 Threads,   6675 MiB Core
         ---------------------------------------------------------

  ==> Geometry <==

    Molecular point group: c1
    Full point group: C1

    Geometry (in Bohr), charge = 0, multiplicity = 1:

       Center              X                  Y                   Z               Mass       
    ------------   -----------------  -----------------  -----------------  -----------------
         N            6.279812100000    -4.253033720000     0.193138650000    14.003074004430
         N            6.068707770000    -2.281256970000     1.805443170000    14.003074004430
         H            3.668711560000    -5.646289410000    -1.966840010000     1.007825032230
         H            0.690345210000    -2.375456940000    -0.428642360000     1.007825032230
         H            3.359174420000     0.176506010000     3.092650170000     1.007825032230
         H            7.352667820000    -1.994613110000     2.906807020000     1.007825032230
         C            3.779525860000    -1.215084530000     1.768581720000    12.000000000000
         C            2.382429980000    -2.555055380000     0.046076810000    12.000000000000
         C            4.017714680000    -4.384104900000    -0.887618630000    12.000000000000
         N          -12.678718610000   -14.187325020000   -11.211256830000    14.003074004430
         N          -12.559856350000   -16.225232050000   -12.748430550000    14.003074004430
         H          -10.005555880000   -11.786415050000   -10.493226480000     1.007825032230
         H           -7.110919320000   -14.228953800000   -13.248363990000     1.007825032230
         H          -10.047343390000   -17.942002810000   -15.153000300000     1.007825032230
         H          -14.022264570000   -17.035209110000   -13.134195880000     1.007825032230
         C          -10.277019950000   -16.555407720000   -13.777479400000    12.000000000000
         C           -8.794027510000   -14.625735510000   -12.887556930000    12.000000000000
         C          -10.355332840000   -13.240567690000   -11.295858990000    12.000000000000

  Running in c1 symmetry.

  Rotational constants: A =      0.02534  B =      0.00175  C =      0.00164 [cm^-1]
  Rotational constants: A =    759.64105  B =     52.39538  C =     49.22477 [MHz]
  Nuclear repulsion =  388.437596807599903

  Charge       = 0
  Multiplicity = 1
  Electrons    = 72
  Nalpha       = 36
  Nbeta        = 36

  ==> Algorithm <==

  SCF Algorithm Type is DF.
  DIIS enabled.
  MOM disabled.
  Fractional occupation disabled.
  Guess Type is SAD.
  Energy threshold   = 1.00e-10
  Density threshold  = 1.00e-10
  Integral threshold = 1.00e-12

  ==> Primary Basis <==

  Basis Set: AUG-CC-PVDZ
    Blend: AUG-CC-PVDZ
    Number of shells: 130
    Number of basis functions: 302
    Number of Cartesian functions: 322
    Spherical Harmonics?: true
    Max angular momentum: 2

   => Loading Basis Set <=

    Name: (AUG-CC-PVDZ AUX)
    Role: JKFIT
    Keyword: DF_BASIS_SCF
    atoms 1-2, 10-11 entry N          line   212 file /theoryfs2/ds/csargent/miniconda3/envs/cle/share/psi4/basis/aug-cc-pvdz-jkfit.gbs 
    atoms 3-6, 12-15 entry H          line    70 file /theoryfs2/ds/csargent/miniconda3/envs/cle/share/psi4/basis/aug-cc-pvdz-jkfit.gbs 
    atoms 7-9, 16-18 entry C          line   154 file /theoryfs2/ds/csargent/miniconda3/envs/cle/share/psi4/basis/aug-cc-pvdz-jkfit.gbs 

  ==> Integral Setup <==

  ==> DiskDFJK: Density-Fitted J/K Matrices <==

    J tasked:                  Yes
    K tasked:                  Yes
    wK tasked:                  No
    OpenMP threads:              6
    Integrals threads:           6
    Memory [MiB]:             5006
    Algorithm:                Core
    Integral Cache:           SAVE
    Schwarz Cutoff:          1E-12
    Fitting Condition:       1E-10

   => Auxiliary Basis Set <=

  Basis Set: (AUG-CC-PVDZ AUX)
    Blend: AUG-CC-PVDZ-JKFIT
    Number of shells: 376
    Number of basis functions: 1116
    Number of Cartesian functions: 1290
    Spherical Harmonics?: true
    Max angular momentum: 3

  Minimum eigenvalue in the overlap matrix is 2.9847084106E-05.
  Reciprocal condition number of the overlap matrix is 2.4473662986E-06.
    Using symmetric orthogonalization.

  ==> Pre-Iterations <==

  SCF Guess: Superposition of Atomic Densities via on-the-fly atomic UHF (no occupation information).

   -------------------------
    Irrep   Nso     Nmo    
   -------------------------
     A        302     302 
   -------------------------
    Total     302     302
   -------------------------

  ==> Iterations <==

                           Total Energy        Delta E     RMS |[F,P]|

   @DF-RHF iter SAD:  -449.44445666014735   -4.49444e+02   0.00000e+00 
   @DF-RHF iter   1:  -449.27099708242315    1.73460e-01   2.12870e-03 DIIS
   @DF-RHF iter   2:  -449.47964655611662   -2.08649e-01   9.75456e-04 DIIS
   @DF-RHF iter   3:  -449.52161725649643   -4.19707e-02   2.11194e-04 DIIS
   @DF-RHF iter   4:  -449.52439796662657   -2.78071e-03   8.64639e-05 DIIS
   @DF-RHF iter   5:  -449.52476132460254   -3.63358e-04   1.69422e-05 DIIS
   @DF-RHF iter   6:  -449.52479522163674   -3.38970e-05   7.02769e-06 DIIS
   @DF-RHF iter   7:  -449.52480310437835   -7.88274e-06   3.11983e-06 DIIS
   @DF-RHF iter   8:  -449.52480464224163   -1.53786e-06   1.43799e-06 DIIS
   @DF-RHF iter   9:  -449.52480498044258   -3.38201e-07   4.02911e-07 DIIS
   @DF-RHF iter  10:  -449.52480499832126   -1.78787e-08   1.20737e-07 DIIS
   @DF-RHF iter  11:  -449.52480499969897   -1.37771e-09   2.81734e-08 DIIS
   @DF-RHF iter  12:  -449.52480499979038   -9.14042e-11   8.20953e-09 DIIS
   @DF-RHF iter  13:  -449.52480499979958   -9.20863e-12   3.99228e-09 DIIS
   @DF-RHF iter  14:  -449.52480499980095   -1.36424e-12   1.37110e-09 DIIS
   @DF-RHF iter  15:  -449.52480499980174   -7.95808e-13   5.86203e-10 DIIS
   @DF-RHF iter  16:  -449.52480499980152    2.27374e-13   1.80149e-10 DIIS
   @DF-RHF iter  17:  -449.52480499980101    5.11591e-13   6.48665e-11 DIIS
  Energy and wave function converged.


  ==> Post-Iterations <==

    Orbital Energies [Eh]
    ---------------------

    Doubly Occupied:                                                      

       1A    -15.636077     2A    -15.635838     3A    -15.592156  
       4A    -15.591942     5A    -11.279716     6A    -11.279480  
       7A    -11.237632     8A    -11.237410     9A    -11.209691  
      10A    -11.209464    11A     -1.386850    12A     -1.386540  
      13A     -1.121752    14A     -1.121525    15A     -1.066751  
      16A     -1.066490    17A     -0.872613    18A     -0.872382  
      19A     -0.836885    20A     -0.836665    21A     -0.757085  
      22A     -0.756879    23A     -0.645594    24A     -0.645357  
      25A     -0.620662    26A     -0.620428    27A     -0.609021  
      28A     -0.608756    29A     -0.583735    30A     -0.583516  
      31A     -0.461289    32A     -0.461042    33A     -0.370573  
      34A     -0.370340    35A     -0.345878    36A     -0.345642  

    Virtual:                                                              

      37A      0.030428    38A      0.031067    39A      0.034710  
      40A      0.045642    41A      0.050316    42A      0.054719  
      43A      0.060143    44A      0.068987    45A      0.100126  
      46A      0.101672    47A      0.102523    48A      0.107184  
      49A      0.116515    50A      0.118013    51A      0.126211  
      52A      0.126369    53A      0.133016    54A      0.133596  
      55A      0.135534    56A      0.138786    57A      0.139699  
      58A      0.148671    59A      0.155972    60A      0.158735  
      61A      0.161971    62A      0.170824    63A      0.171469  
      64A      0.172908    65A      0.183283    66A      0.184569  
      67A      0.196560    68A      0.197603    69A      0.204895  
      70A      0.205507    71A      0.205547    72A      0.210502  
      73A      0.240452    74A      0.240963    75A      0.243441  
      76A      0.244169    77A      0.244507    78A      0.248065  
      79A      0.271230    80A      0.271744    81A      0.279387  
      82A      0.279833    83A      0.300625    84A      0.305281  
      85A      0.324158    86A      0.329431    87A      0.352062  
      88A      0.352945    89A      0.353181    90A      0.360662  
      91A      0.375029    92A      0.375811    93A      0.396124  
      94A      0.397639    95A      0.402997    96A      0.403357  
      97A      0.416160    98A      0.419016    99A      0.432900  
     100A      0.433395   101A      0.443588   102A      0.445274  
     103A      0.453399   104A      0.454989   105A      0.459924  
     106A      0.460518   107A      0.478827   108A      0.479148  
     109A      0.498687   110A      0.498977   111A      0.509178  
     112A      0.509279   113A      0.521927   114A      0.523577  
     115A      0.541633   116A      0.546601   117A      0.574595  
     118A      0.574935   119A      0.586480   120A      0.586767  
     121A      0.589794   122A      0.593744   123A      0.602426  
     124A      0.603542   125A      0.621091   126A      0.621601  
     127A      0.646287   128A      0.646571   129A      0.654805  
     130A      0.657772   131A      0.676337   132A      0.676736  
     133A      0.698059   134A      0.699219   135A      0.700625  
     136A      0.700897   137A      0.721880   138A      0.722185  
     139A      0.725377   140A      0.725781   141A      0.747845  
     142A      0.748214   143A      0.758354   144A      0.760103  
     145A      0.773514   146A      0.773774   147A      0.781460  
     148A      0.782485   149A      0.827749   150A      0.830086  
     151A      0.838513   152A      0.838952   153A      0.848518  
     154A      0.851142   155A      0.881348   156A      0.883153  
     157A      0.889000   158A      0.889551   159A      0.907163  
     160A      0.907395   161A      0.925108   162A      0.925583  
     163A      0.942858   164A      0.943174   165A      0.978457  
     166A      0.978645   167A      0.985077   168A      0.985309  
     169A      1.011337   170A      1.011503   171A      1.046108  
     172A      1.049596   173A      1.066801   174A      1.067032  
     175A      1.101071   176A      1.101473   177A      1.126619  
     178A      1.131910   179A      1.134321   180A      1.134614  
     181A      1.150347   182A      1.150900   183A      1.174867  
     184A      1.176750   185A      1.220635   186A      1.221020  
     187A      1.269706   188A      1.270455   189A      1.303174  
     190A      1.304875   191A      1.311095   192A      1.313845  
     193A      1.365861   194A      1.367046   195A      1.401304  
     196A      1.401543   197A      1.474799   198A      1.475199  
     199A      1.512191   200A      1.512424   201A      1.526407  
     202A      1.527002   203A      1.560975   204A      1.561704  
     205A      1.590732   206A      1.592373   207A      1.608347  
     208A      1.610278   209A      1.636976   210A      1.640123  
     211A      1.670632   212A      1.671088   213A      1.703992  
     214A      1.704688   215A      1.724195   216A      1.724509  
     217A      1.748907   218A      1.750858   219A      1.764541  
     220A      1.764851   221A      1.805122   222A      1.805510  
     223A      1.875586   224A      1.876370   225A      1.932408  
     226A      1.933249   227A      1.943771   228A      1.944001  
     229A      1.988348   230A      1.988813   231A      2.021860  
     232A      2.023325   233A      2.057901   234A      2.058367  
     235A      2.089007   236A      2.089253   237A      2.144770  
     238A      2.146006   239A      2.190184   240A      2.190441  
     241A      2.201094   242A      2.201306   243A      2.230393  
     244A      2.231314   245A      2.275777   246A      2.276693  
     247A      2.307814   248A      2.308122   249A      2.360809  
     250A      2.361133   251A      2.389297   252A      2.389527  
     253A      2.393898   254A      2.394462   255A      2.435354  
     256A      2.435632   257A      2.465093   258A      2.465364  
     259A      2.529755   260A      2.538181   261A      2.570357  
     262A      2.570673   263A      2.584947   264A      2.585415  
     265A      2.643215   266A      2.643490   267A      2.732808  
     268A      2.735225   269A      2.826963   270A      2.827235  
     271A      2.834870   272A      2.835144   273A      2.901678  
     274A      2.902075   275A      2.918776   276A      2.919041  
     277A      2.999312   278A      2.999945   279A      3.055545  
     280A      3.056180   281A      3.092369   282A      3.093068  
     283A      3.122903   284A      3.123435   285A      3.189376  
     286A      3.189638   287A      3.222202   288A      3.222416  
     289A      3.298084   290A      3.298574   291A      3.380352  
     292A      3.381178   293A      3.520797   294A      3.521891  
     295A      3.686460   296A      3.686969   297A      3.889168  
     298A      3.890900   299A      4.208819   300A      4.211476  
     301A      4.463328   302A      4.464104  

    Final Occupation by Irrep:
              A 
    DOCC [    36 ]

  @DF-RHF Final Energy:  -449.52480499980101

   => Energetics <=

    Nuclear Repulsion Energy =            388.4375968075999026
    One-Electron Energy =               -1377.3974898027581730
    Two-Electron Energy =                 539.4350879953573212
    Total Energy =                       -449.5248049998009492

Computation Completed


Properties will be evaluated at   0.000000,   0.000000,   0.000000 [a0]

Properties computed using the SCF density matrix

  Nuclear Dipole Moment: [e a0]
     X:  -231.8258      Y:  -644.9161      Z:  -424.3557

  Electronic Dipole Moment: [e a0]
     X:   231.7135      Y:   644.9824      Z:   424.2323

  Dipole Moment: [e a0]
     X:    -0.1124      Y:     0.0663      Z:    -0.1234     Total:     0.1796

  Dipole Moment: [D]
     X:    -0.2856      Y:     0.1685      Z:    -0.3136     Total:     0.4564


*** tstop() called on ds1 at Mon Oct  4 13:19:56 2021
Module time:
	user time   =      25.71 seconds =       0.43 minutes
	system time =       0.57 seconds =       0.01 minutes
	total time  =          5 seconds =       0.08 minutes
Total time:
	user time   =      25.71 seconds =       0.43 minutes
	system time =       0.57 seconds =       0.01 minutes
	total time  =          5 seconds =       0.08 minutes

  //>>>>>>>>>>>>>>>>>>>>>>>>>>>>>>>>>>>//
  //            Monomer A HF           //
  //<<<<<<<<<<<<<<<<<<<<<<<<<<<<<<<<<<<//


*** tstart() called on ds1
*** at Mon Oct  4 13:19:56 2021

   => Loading Basis Set <=

    Name: AUG-CC-PVDZ
    Role: ORBITAL
    Keyword: BASIS
    atoms 1-2, 10-11 entry N          line   218 file /theoryfs2/ds/csargent/miniconda3/envs/cle/share/psi4/basis/aug-cc-pvdz.gbs 
    atoms 3-6, 12-15 entry H          line    40 file /theoryfs2/ds/csargent/miniconda3/envs/cle/share/psi4/basis/aug-cc-pvdz.gbs 
    atoms 7-9, 16-18 entry C          line   182 file /theoryfs2/ds/csargent/miniconda3/envs/cle/share/psi4/basis/aug-cc-pvdz.gbs 


         ---------------------------------------------------------
                                   SCF
               by Justin Turney, Rob Parrish, Andy Simmonett
                          and Daniel G. A. Smith
                              RHF Reference
                        6 Threads,   6675 MiB Core
         ---------------------------------------------------------

  ==> Geometry <==

    Molecular point group: c1
    Full point group: C1

    Geometry (in Bohr), charge = 0, multiplicity = 1:

       Center              X                  Y                   Z               Mass       
    ------------   -----------------  -----------------  -----------------  -----------------
         N            6.279812100000    -4.253033720000     0.193138650000    14.003074004430
         N            6.068707770000    -2.281256970000     1.805443170000    14.003074004430
         H            3.668711560000    -5.646289410000    -1.966840010000     1.007825032230
         H            0.690345210000    -2.375456940000    -0.428642360000     1.007825032230
         H            3.359174420000     0.176506010000     3.092650170000     1.007825032230
         H            7.352667820000    -1.994613110000     2.906807020000     1.007825032230
         C            3.779525860000    -1.215084530000     1.768581720000    12.000000000000
         C            2.382429980000    -2.555055380000     0.046076810000    12.000000000000
         C            4.017714680000    -4.384104900000    -0.887618630000    12.000000000000
      Gh(N)         -12.678718610000   -14.187325020000   -11.211256830000    14.003074004430
      Gh(N)         -12.559856350000   -16.225232050000   -12.748430550000    14.003074004430
      Gh(H)         -10.005555880000   -11.786415050000   -10.493226480000     1.007825032230
      Gh(H)          -7.110919320000   -14.228953800000   -13.248363990000     1.007825032230
      Gh(H)         -10.047343390000   -17.942002810000   -15.153000300000     1.007825032230
      Gh(H)         -14.022264570000   -17.035209110000   -13.134195880000     1.007825032230
      Gh(C)         -10.277019950000   -16.555407720000   -13.777479400000    12.000000000000
      Gh(C)          -8.794027510000   -14.625735510000   -12.887556930000    12.000000000000
      Gh(C)         -10.355332840000   -13.240567690000   -11.295858990000    12.000000000000

  Running in c1 symmetry.

  Rotational constants: A =      0.02534  B =      0.00175  C =      0.00164 [cm^-1]
  Rotational constants: A =    759.64105  B =     52.39538  C =     49.22477 [MHz]
  Nuclear repulsion =  166.624056450327203

  Charge       = 0
  Multiplicity = 1
  Electrons    = 36
  Nalpha       = 18
  Nbeta        = 18

  ==> Algorithm <==

  SCF Algorithm Type is DF.
  DIIS enabled.
  MOM disabled.
  Fractional occupation disabled.
  Guess Type is SAD.
  Energy threshold   = 1.00e-10
  Density threshold  = 1.00e-10
  Integral threshold = 1.00e-12

  ==> Primary Basis <==

  Basis Set: AUG-CC-PVDZ
    Blend: AUG-CC-PVDZ
    Number of shells: 130
    Number of basis functions: 302
    Number of Cartesian functions: 322
    Spherical Harmonics?: true
    Max angular momentum: 2

   => Loading Basis Set <=

    Name: (AUG-CC-PVDZ AUX)
    Role: JKFIT
    Keyword: DF_BASIS_SCF
    atoms 1-2, 10-11 entry N          line   212 file /theoryfs2/ds/csargent/miniconda3/envs/cle/share/psi4/basis/aug-cc-pvdz-jkfit.gbs 
    atoms 3-6, 12-15 entry H          line    70 file /theoryfs2/ds/csargent/miniconda3/envs/cle/share/psi4/basis/aug-cc-pvdz-jkfit.gbs 
    atoms 7-9, 16-18 entry C          line   154 file /theoryfs2/ds/csargent/miniconda3/envs/cle/share/psi4/basis/aug-cc-pvdz-jkfit.gbs 

  ==> Integral Setup <==

  ==> DiskDFJK: Density-Fitted J/K Matrices <==

    J tasked:                  Yes
    K tasked:                  Yes
    wK tasked:                  No
    OpenMP threads:              6
    Integrals threads:           6
    Memory [MiB]:             5006
    Algorithm:                Core
    Integral Cache:           LOAD
    Schwarz Cutoff:          1E-12
    Fitting Condition:       1E-10

   => Auxiliary Basis Set <=

  Basis Set: (AUG-CC-PVDZ AUX)
    Blend: AUG-CC-PVDZ-JKFIT
    Number of shells: 376
    Number of basis functions: 1116
    Number of Cartesian functions: 1290
    Spherical Harmonics?: true
    Max angular momentum: 3

  Minimum eigenvalue in the overlap matrix is 2.9847084106E-05.
  Reciprocal condition number of the overlap matrix is 2.4473662986E-06.
    Using symmetric orthogonalization.

  ==> Pre-Iterations <==

  SCF Guess: Superposition of Atomic Densities via on-the-fly atomic UHF (no occupation information).

   -------------------------
    Irrep   Nso     Nmo    
   -------------------------
     A        302     302 
   -------------------------
    Total     302     302
   -------------------------

  ==> Iterations <==

                           Total Energy        Delta E     RMS |[F,P]|

   @DF-RHF iter SAD:  -224.72194802346627   -2.24722e+02   0.00000e+00 
   @DF-RHF iter   1:  -224.63549408394294    8.64539e-02   1.50474e-03 DIIS
   @DF-RHF iter   2:  -224.73984902774529   -1.04355e-01   6.88469e-04 DIIS
   @DF-RHF iter   3:  -224.76075805838656   -2.09090e-02   1.48626e-04 DIIS
   @DF-RHF iter   4:  -224.76214250236200   -1.38444e-03   6.05313e-05 DIIS
   @DF-RHF iter   5:  -224.76232085822826   -1.78356e-04   1.19894e-05 DIIS
   @DF-RHF iter   6:  -224.76233781574751   -1.69575e-05   4.96773e-06 DIIS
   @DF-RHF iter   7:  -224.76234177180521   -3.95606e-06   2.18806e-06 DIIS
   @DF-RHF iter   8:  -224.76234253254296   -7.60738e-07   1.01701e-06 DIIS
   @DF-RHF iter   9:  -224.76234270018705   -1.67644e-07   2.83300e-07 DIIS
   @DF-RHF iter  10:  -224.76234270900716   -8.82011e-09   8.55552e-08 DIIS
   @DF-RHF iter  11:  -224.76234270969695   -6.89795e-10   1.99711e-08 DIIS
   @DF-RHF iter  12:  -224.76234270974334   -4.63842e-11   5.81069e-09 DIIS
   @DF-RHF iter  13:  -224.76234270974746   -4.12115e-12   2.83076e-09 DIIS
   @DF-RHF iter  14:  -224.76234270974797   -5.11591e-13   9.75057e-10 DIIS
   @DF-RHF iter  15:  -224.76234270974805   -8.52651e-14   4.15509e-10 DIIS
   @DF-RHF iter  16:  -224.76234270974888   -8.24230e-13   1.25996e-10 DIIS
   @DF-RHF iter  17:  -224.76234270974848    3.97904e-13   4.47789e-11 DIIS
  Energy and wave function converged.


  ==> Post-Iterations <==

    Orbital Energies [Eh]
    ---------------------

    Doubly Occupied:                                                      

       1A    -15.636223     2A    -15.592313     3A    -11.279893  
       4A    -11.237783     5A    -11.209889     6A     -1.386921  
       7A     -1.121901     8A     -1.066898     9A     -0.872768  
      10A     -0.837060    11A     -0.757293    12A     -0.645747  
      13A     -0.620834    14A     -0.609139    15A     -0.583920  
      16A     -0.461404    17A     -0.370721    18A     -0.346047  

    Virtual:                                                              

      19A      0.022063    20A      0.030526    21A      0.035121  
      22A      0.043184    23A      0.047432    24A      0.051028  
      25A      0.060857    26A      0.069773    27A      0.084192  
      28A      0.090645    29A      0.098879    30A      0.101306  
      31A      0.105672    32A      0.116971    33A      0.118282  
      34A      0.125221    35A      0.127397    36A      0.129059  
      37A      0.132293    38A      0.132835    39A      0.134204  
      40A      0.138873    41A      0.145210    42A      0.157111  
      43A      0.158879    44A      0.163473    45A      0.171036  
      46A      0.171486    47A      0.179849    48A      0.184296  
      49A      0.195874    50A      0.197219    51A      0.201809  
      52A      0.204950    53A      0.206880    54A      0.223168  
      55A      0.226031    56A      0.230421    57A      0.237099  
      58A      0.241079    59A      0.243793    60A      0.247643  
      61A      0.264946    62A      0.271072    63A      0.272171  
      64A      0.279482    65A      0.303161    66A      0.322159  
      67A      0.327802    68A      0.341246    69A      0.352454  
      70A      0.356114    71A      0.367492    72A      0.373497  
      73A      0.375067    74A      0.384967    75A      0.396550  
      76A      0.402872    77A      0.417549    78A      0.427933  
      79A      0.431149    80A      0.434117    81A      0.441830  
      82A      0.442758    83A      0.444350    84A      0.453441  
      85A      0.456422    86A      0.458143    87A      0.459909  
      88A      0.463236    89A      0.478684    90A      0.498555  
      91A      0.508836    92A      0.510937    93A      0.519851  
      94A      0.522680    95A      0.533343    96A      0.539421  
      97A      0.543439    98A      0.559621    99A      0.569255  
     100A      0.573574   101A      0.574688   102A      0.586332  
     103A      0.591734   104A      0.595457   105A      0.602650  
     106A      0.613636   107A      0.620788   108A      0.622057  
     109A      0.634045   110A      0.646133   111A      0.655853  
     112A      0.676219   113A      0.691251   114A      0.698463  
     115A      0.700448   116A      0.708025   117A      0.719797  
     118A      0.721757   119A      0.725256   120A      0.736037  
     121A      0.746987   122A      0.748351   123A      0.758914  
     124A      0.773367   125A      0.781669   126A      0.790376  
     127A      0.798606   128A      0.814793   129A      0.821160  
     130A      0.828903   131A      0.838341   132A      0.849242  
     133A      0.852471   134A      0.856171   135A      0.871666  
     136A      0.881355   137A      0.882171   138A      0.888999  
     139A      0.895971   140A      0.906977   141A      0.916792  
     142A      0.925177   143A      0.942747   144A      0.952460  
     145A      0.978224   146A      0.984912   147A      0.997444  
     148A      1.011159   149A      1.024536   150A      1.031732  
     151A      1.047662   152A      1.052053   153A      1.066557  
     154A      1.071669   155A      1.081636   156A      1.101118  
     157A      1.108552   158A      1.129036   159A      1.134221  
     160A      1.150300   161A      1.159216   162A      1.166944  
     163A      1.175542   164A      1.185357   165A      1.220574  
     166A      1.222065   167A      1.237731   168A      1.268268  
     169A      1.269837   170A      1.294023   171A      1.304018  
     172A      1.312010   173A      1.315560   174A      1.341535  
     175A      1.366235   176A      1.382128   177A      1.401129  
     178A      1.435314   179A      1.445135   180A      1.474727  
     181A      1.494013   182A      1.508198   183A      1.512031  
     184A      1.526606   185A      1.561140   186A      1.591341  
     187A      1.609113   188A      1.638389   189A      1.670232  
     190A      1.677541   191A      1.689293   192A      1.704036  
     193A      1.724035   194A      1.749597   195A      1.764410  
     196A      1.805080   197A      1.875710   198A      1.932540  
     199A      1.943568   200A      1.988265   201A      2.022198  
     202A      2.041881   203A      2.057809   204A      2.088846  
     205A      2.109617   206A      2.135140   207A      2.145108  
     208A      2.168629   209A      2.190015   210A      2.200866  
     211A      2.217219   212A      2.230538   213A      2.234422  
     214A      2.262671   215A      2.275920   216A      2.278305  
     217A      2.290295   218A      2.307677   219A      2.336249  
     220A      2.360724   221A      2.380906   222A      2.389142  
     223A      2.393748   224A      2.395487   225A      2.435257  
     226A      2.444935   227A      2.464974   228A      2.479243  
     229A      2.500549   230A      2.514014   231A      2.534012  
     232A      2.549270   233A      2.570275   234A      2.584840  
     235A      2.631874   236A      2.643063   237A      2.667895  
     238A      2.703448   239A      2.719378   240A      2.733725  
     241A      2.826842   242A      2.828440   243A      2.834755  
     244A      2.870481   245A      2.890412   246A      2.901641  
     247A      2.918642   248A      2.946263   249A      2.999337  
     250A      3.028422   251A      3.055593   252A      3.090103  
     253A      3.092441   254A      3.122931   255A      3.140443  
     256A      3.182242   257A      3.189231   258A      3.222013  
     259A      3.254557   260A      3.289423   261A      3.298038  
     262A      3.356449   263A      3.380427   264A      3.397125  
     265A      3.423804   266A      3.448616   267A      3.488991  
     268A      3.497953   269A      3.521128   270A      3.633975  
     271A      3.667337   272A      3.686572   273A      3.736170  
     274A      3.770741   275A      3.851508   276A      3.889834  
     277A      3.965104   278A      4.035949   279A      4.095295  
     280A      4.209967   281A      4.244679   282A      4.449330  
     283A      4.463531   284A      4.658775   285A      4.708543  
     286A      4.750470   287A      4.811195   288A      4.996043  
     289A      5.077415   290A      5.242061   291A      5.531844  
     292A      5.669391   293A      5.827158   294A      6.107361  
     295A      6.318627   296A      6.707934   297A      6.968021  
     298A     18.111631   299A     18.649222   300A     19.375050  
     301A     25.245740   302A     25.705833  

    Final Occupation by Irrep:
              A 
    DOCC [    18 ]

  @DF-RHF Final Energy:  -224.76234270974848

   => Energetics <=

    Nuclear Repulsion Energy =            166.6240564503272026
    One-Electron Energy =                -633.4992904039804671
    Two-Electron Energy =                 242.1128912439047838
    Total Energy =                       -224.7623427097484807

Computation Completed


Properties will be evaluated at   0.000000,   0.000000,   0.000000 [a0]

Properties computed using the SCF density matrix

  Nuclear Dipole Moment: [e a0]
     X:   162.5886      Y:  -104.5054      Z:    23.1563

  Electronic Dipole Moment: [e a0]
     X:  -162.9913      Y:   105.1370      Z:   -22.5767

  Dipole Moment: [e a0]
     X:    -0.4027      Y:     0.6317      Z:     0.5796     Total:     0.9472

  Dipole Moment: [D]
     X:    -1.0236      Y:     1.6055      Z:     1.4733     Total:     2.4075


*** tstop() called on ds1 at Mon Oct  4 13:20:00 2021
Module time:
	user time   =      18.51 seconds =       0.31 minutes
	system time =       0.36 seconds =       0.01 minutes
	total time  =          4 seconds =       0.07 minutes
Total time:
	user time   =      44.25 seconds =       0.74 minutes
	system time =       0.94 seconds =       0.02 minutes
	total time  =          9 seconds =       0.15 minutes

  //>>>>>>>>>>>>>>>>>>>>>>>>>>>>>>>>>>>//
  //            Monomer B HF           //
  //<<<<<<<<<<<<<<<<<<<<<<<<<<<<<<<<<<<//


*** tstart() called on ds1
*** at Mon Oct  4 13:20:00 2021

   => Loading Basis Set <=

    Name: AUG-CC-PVDZ
    Role: ORBITAL
    Keyword: BASIS
    atoms 1-2, 10-11 entry N          line   218 file /theoryfs2/ds/csargent/miniconda3/envs/cle/share/psi4/basis/aug-cc-pvdz.gbs 
    atoms 3-6, 12-15 entry H          line    40 file /theoryfs2/ds/csargent/miniconda3/envs/cle/share/psi4/basis/aug-cc-pvdz.gbs 
    atoms 7-9, 16-18 entry C          line   182 file /theoryfs2/ds/csargent/miniconda3/envs/cle/share/psi4/basis/aug-cc-pvdz.gbs 


         ---------------------------------------------------------
                                   SCF
               by Justin Turney, Rob Parrish, Andy Simmonett
                          and Daniel G. A. Smith
                              RHF Reference
                        6 Threads,   6675 MiB Core
         ---------------------------------------------------------

  ==> Geometry <==

    Molecular point group: c1
    Full point group: C1

    Geometry (in Bohr), charge = 0, multiplicity = 1:

       Center              X                  Y                   Z               Mass       
    ------------   -----------------  -----------------  -----------------  -----------------
      Gh(N)           6.279812100000    -4.253033720000     0.193138650000    14.003074004430
      Gh(N)           6.068707770000    -2.281256970000     1.805443170000    14.003074004430
      Gh(H)           3.668711560000    -5.646289410000    -1.966840010000     1.007825032230
      Gh(H)           0.690345210000    -2.375456940000    -0.428642360000     1.007825032230
      Gh(H)           3.359174420000     0.176506010000     3.092650170000     1.007825032230
      Gh(H)           7.352667820000    -1.994613110000     2.906807020000     1.007825032230
      Gh(C)           3.779525860000    -1.215084530000     1.768581720000    12.000000000000
      Gh(C)           2.382429980000    -2.555055380000     0.046076810000    12.000000000000
      Gh(C)           4.017714680000    -4.384104900000    -0.887618630000    12.000000000000
         N          -12.678718610000   -14.187325020000   -11.211256830000    14.003074004430
         N          -12.559856350000   -16.225232050000   -12.748430550000    14.003074004430
         H          -10.005555880000   -11.786415050000   -10.493226480000     1.007825032230
         H           -7.110919320000   -14.228953800000   -13.248363990000     1.007825032230
         H          -10.047343390000   -17.942002810000   -15.153000300000     1.007825032230
         H          -14.022264570000   -17.035209110000   -13.134195880000     1.007825032230
         C          -10.277019950000   -16.555407720000   -13.777479400000    12.000000000000
         C           -8.794027510000   -14.625735510000   -12.887556930000    12.000000000000
         C          -10.355332840000   -13.240567690000   -11.295858990000    12.000000000000

  Running in c1 symmetry.

  Rotational constants: A =      0.02534  B =      0.00175  C =      0.00164 [cm^-1]
  Rotational constants: A =    759.64105  B =     52.39538  C =     49.22477 [MHz]
  Nuclear repulsion =  166.628602815440104

  Charge       = 0
  Multiplicity = 1
  Electrons    = 36
  Nalpha       = 18
  Nbeta        = 18

  ==> Algorithm <==

  SCF Algorithm Type is DF.
  DIIS enabled.
  MOM disabled.
  Fractional occupation disabled.
  Guess Type is SAD.
  Energy threshold   = 1.00e-10
  Density threshold  = 1.00e-10
  Integral threshold = 1.00e-12

  ==> Primary Basis <==

  Basis Set: AUG-CC-PVDZ
    Blend: AUG-CC-PVDZ
    Number of shells: 130
    Number of basis functions: 302
    Number of Cartesian functions: 322
    Spherical Harmonics?: true
    Max angular momentum: 2

   => Loading Basis Set <=

    Name: (AUG-CC-PVDZ AUX)
    Role: JKFIT
    Keyword: DF_BASIS_SCF
    atoms 1-2, 10-11 entry N          line   212 file /theoryfs2/ds/csargent/miniconda3/envs/cle/share/psi4/basis/aug-cc-pvdz-jkfit.gbs 
    atoms 3-6, 12-15 entry H          line    70 file /theoryfs2/ds/csargent/miniconda3/envs/cle/share/psi4/basis/aug-cc-pvdz-jkfit.gbs 
    atoms 7-9, 16-18 entry C          line   154 file /theoryfs2/ds/csargent/miniconda3/envs/cle/share/psi4/basis/aug-cc-pvdz-jkfit.gbs 

  ==> Integral Setup <==

  ==> DiskDFJK: Density-Fitted J/K Matrices <==

    J tasked:                  Yes
    K tasked:                  Yes
    wK tasked:                  No
    OpenMP threads:              6
    Integrals threads:           6
    Memory [MiB]:             5006
    Algorithm:                Core
    Integral Cache:           LOAD
    Schwarz Cutoff:          1E-12
    Fitting Condition:       1E-10

   => Auxiliary Basis Set <=

  Basis Set: (AUG-CC-PVDZ AUX)
    Blend: AUG-CC-PVDZ-JKFIT
    Number of shells: 376
    Number of basis functions: 1116
    Number of Cartesian functions: 1290
    Spherical Harmonics?: true
    Max angular momentum: 3

  Minimum eigenvalue in the overlap matrix is 2.9847084106E-05.
  Reciprocal condition number of the overlap matrix is 2.4473662986E-06.
    Using symmetric orthogonalization.

  ==> Pre-Iterations <==

  SCF Guess: Superposition of Atomic Densities via on-the-fly atomic UHF (no occupation information).

   -------------------------
    Irrep   Nso     Nmo    
   -------------------------
     A        302     302 
   -------------------------
    Total     302     302
   -------------------------

  ==> Iterations <==

                           Total Energy        Delta E     RMS |[F,P]|

   @DF-RHF iter SAD:  -224.72250855959149   -2.24723e+02   0.00000e+00 
   @DF-RHF iter   1:  -224.63556819242558    8.69404e-02   1.50491e-03 DIIS
   @DF-RHF iter   2:  -224.73993578245705   -1.04368e-01   6.88627e-04 DIIS
   @DF-RHF iter   3:  -224.76085378469639   -2.09180e-02   1.48614e-04 DIIS
   @DF-RHF iter   4:  -224.76223798362849   -1.38420e-03   6.05154e-05 DIIS
   @DF-RHF iter   5:  -224.76241622909851   -1.78245e-04   1.19848e-05 DIIS
   @DF-RHF iter   6:  -224.76243316217582   -1.69331e-05   4.96322e-06 DIIS
   @DF-RHF iter   7:  -224.76243711000257   -3.94783e-06   2.18626e-06 DIIS
   @DF-RHF iter   8:  -224.76243786953205   -7.59529e-07   1.01631e-06 DIIS
   @DF-RHF iter   9:  -224.76243803703801   -1.67506e-07   2.83277e-07 DIIS
   @DF-RHF iter  10:  -224.76243804585545   -8.81744e-09   8.55275e-08 DIIS
   @DF-RHF iter  11:  -224.76243804654510   -6.89653e-10   1.99675e-08 DIIS
   @DF-RHF iter  12:  -224.76243804659100   -4.59011e-11   5.80950e-09 DIIS
   @DF-RHF iter  13:  -224.76243804659507   -4.06430e-12   2.83563e-09 DIIS
   @DF-RHF iter  14:  -224.76243804659595   -8.81073e-13   9.79718e-10 DIIS
   @DF-RHF iter  15:  -224.76243804659651   -5.68434e-13   4.16505e-10 DIIS
   @DF-RHF iter  16:  -224.76243804659669   -1.70530e-13   1.25806e-10 DIIS
   @DF-RHF iter  17:  -224.76243804659663    5.68434e-14   4.47606e-11 DIIS
  Energy and wave function converged.


  ==> Post-Iterations <==

    Orbital Energies [Eh]
    ---------------------

    Doubly Occupied:                                                      

       1A    -15.636233     2A    -15.592291     3A    -11.279903  
       4A    -11.237757     5A    -11.209883     6A     -1.387001  
       7A     -1.121893     8A     -1.066927     9A     -0.872759  
      10A     -0.837039    11A     -0.757272    12A     -0.645746  
      13A     -0.620828    14A     -0.609177    15A     -0.583905  
      16A     -0.461413    17A     -0.370715    18A     -0.346054  

    Virtual:                                                              

      19A      0.022358    20A      0.030571    21A      0.035476  
      22A      0.043206    23A      0.047028    24A      0.051353  
      25A      0.060912    26A      0.070188    27A      0.084444  
      28A      0.090847    29A      0.099046    30A      0.101270  
      31A      0.105561    32A      0.115740    33A      0.120130  
      34A      0.125350    35A      0.127228    36A      0.129047  
      37A      0.132677    38A      0.133501    39A      0.134481  
      40A      0.138583    41A      0.145164    42A      0.157068  
      43A      0.158820    44A      0.163511    45A      0.170669  
      46A      0.171628    47A      0.180215    48A      0.184617  
      49A      0.195713    50A      0.197370    51A      0.202316  
      52A      0.204969    53A      0.206919    54A      0.223505  
      55A      0.226385    56A      0.230199    57A      0.237847  
      58A      0.240424    59A      0.244673    60A      0.246409  
      61A      0.265071    62A      0.270807    63A      0.273646  
      64A      0.279355    65A      0.303244    66A      0.322352  
      67A      0.327885    68A      0.341600    69A      0.352522  
      70A      0.355901    71A      0.367835    72A      0.374006  
      73A      0.375287    74A      0.384815    75A      0.396560  
      76A      0.402847    77A      0.417192    78A      0.428188  
      79A      0.432022    80A      0.433113    81A      0.441892  
      82A      0.443006    83A      0.444482    84A      0.453379  
      85A      0.456499    86A      0.458382    87A      0.459860  
      88A      0.464158    89A      0.478661    90A      0.498556  
      91A      0.508926    92A      0.511261    93A      0.520108  
      94A      0.522719    95A      0.533577    96A      0.539319  
      97A      0.543700    98A      0.559880    99A      0.569494  
     100A      0.574115   101A      0.574527   102A      0.586351  
     103A      0.591449   104A      0.595654   105A      0.602555  
     106A      0.613972   107A      0.620803   108A      0.622484  
     109A      0.634010   110A      0.646155   111A      0.655843  
     112A      0.676177   113A      0.691492   114A      0.698447  
     115A      0.700472   116A      0.708339   117A      0.720049  
     118A      0.721744   119A      0.725193   120A      0.736231  
     121A      0.747366   122A      0.748075   123A      0.759017  
     124A      0.773339   125A      0.781712   126A      0.790531  
     127A      0.798897   128A      0.815044   129A      0.821443  
     130A      0.828932   131A      0.838414   132A      0.849254  
     133A      0.852703   134A      0.856402   135A      0.872079  
     136A      0.881641   137A      0.881963   138A      0.888977  
     139A      0.896261   140A      0.907025   141A      0.917100  
     142A      0.925056   143A      0.942721   144A      0.952717  
     145A      0.978307   146A      0.984915   147A      0.997700  
     148A      1.011221   149A      1.024695   150A      1.031899  
     151A      1.047951   152A      1.052239   153A      1.066568  
     154A      1.071942   155A      1.081911   156A      1.100919  
     157A      1.108747   158A      1.129131   159A      1.134166  
     160A      1.150299   161A      1.159371   162A      1.167196  
     163A      1.175578   164A      1.185709   165A      1.220570  
     166A      1.222254   167A      1.238098   168A      1.268508  
     169A      1.269793   170A      1.294214   171A      1.303820  
     172A      1.312057   173A      1.315759   174A      1.341894  
     175A      1.366154   176A      1.382350   177A      1.401137  
     178A      1.435552   179A      1.445305   180A      1.474737  
     181A      1.494322   182A      1.508279   183A      1.512046  
     184A      1.526508   185A      1.561029   186A      1.591363  
     187A      1.609041   188A      1.638153   189A      1.670571  
     190A      1.677595   191A      1.689504   192A      1.704064  
     193A      1.724104   194A      1.749579   195A      1.764394  
     196A      1.805030   197A      1.875644   198A      1.932563  
     199A      1.943578   200A      1.988349   201A      2.022295  
     202A      2.042133   203A      2.057889   204A      2.088828  
     205A      2.109736   206A      2.135449   207A      2.145081  
     208A      2.168811   209A      2.190017   210A      2.200933  
     211A      2.217577   212A      2.230536   213A      2.234606  
     214A      2.262864   215A      2.275956   216A      2.278639  
     217A      2.290380   218A      2.307689   219A      2.336519  
     220A      2.360685   221A      2.381184   222A      2.389152  
     223A      2.393715   224A      2.395864   225A      2.435208  
     226A      2.445217   227A      2.464946   228A      2.479636  
     229A      2.500717   230A      2.514165   231A      2.533702  
     232A      2.549503   233A      2.570203   234A      2.584952  
     235A      2.632137   236A      2.643077   237A      2.668135  
     238A      2.703653   239A      2.719635   240A      2.733726  
     241A      2.826818   242A      2.828630   243A      2.834732  
     244A      2.870677   245A      2.890705   246A      2.901598  
     247A      2.918632   248A      2.946671   249A      2.999351  
     250A      3.028740   251A      3.055600   252A      3.090409  
     253A      3.092505   254A      3.122831   255A      3.140663  
     256A      3.182592   257A      3.189275   258A      3.222039  
     259A      3.254750   260A      3.289737   261A      3.298085  
     262A      3.356693   263A      3.380388   264A      3.397459  
     265A      3.424071   266A      3.448943   267A      3.489220  
     268A      3.498152   269A      3.521137   270A      3.634076  
     271A      3.667534   272A      3.686304   273A      3.736378  
     274A      3.770990   275A      3.851719   276A      3.889734  
     277A      3.965154   278A      4.036029   279A      4.095487  
     280A      4.209834   281A      4.244900   282A      4.449765  
     283A      4.463372   284A      4.658956   285A      4.708641  
     286A      4.750698   287A      4.811356   288A      4.996278  
     289A      5.077830   290A      5.242436   291A      5.531874  
     292A      5.669527   293A      5.827527   294A      6.107254  
     295A      6.319028   296A      6.708991   297A      6.968596  
     298A     18.111889   299A     18.649190   300A     19.375325  
     301A     25.246063   302A     25.705636  

    Final Occupation by Irrep:
              A 
    DOCC [    18 ]

  @DF-RHF Final Energy:  -224.76243804659663

   => Energetics <=

    Nuclear Repulsion Energy =            166.6286028154401038
    One-Electron Energy =                -633.5084892522206701
    Two-Electron Energy =                 242.1174483901839380
    Total Energy =                       -224.7624380465966283

Computation Completed


Properties will be evaluated at   0.000000,   0.000000,   0.000000 [a0]

Properties computed using the SCF density matrix

  Nuclear Dipole Moment: [e a0]
     X:  -394.4144      Y:  -540.4107      Z:  -447.5120

  Electronic Dipole Moment: [e a0]
     X:   394.7053      Y:   539.8467      Z:   446.8089

  Dipole Moment: [e a0]
     X:     0.2909      Y:    -0.5640      Z:    -0.7031     Total:     0.9472

  Dipole Moment: [D]
     X:     0.7395      Y:    -1.4336      Z:    -1.7871     Total:     2.4075


*** tstop() called on ds1 at Mon Oct  4 13:20:04 2021
Module time:
	user time   =      18.31 seconds =       0.31 minutes
	system time =       0.36 seconds =       0.01 minutes
	total time  =          4 seconds =       0.07 minutes
Total time:
	user time   =      62.78 seconds =       1.05 minutes
	system time =       1.30 seconds =       0.02 minutes
	total time  =         13 seconds =       0.22 minutes
  Constructing Basis Sets for SAPT...

   => Loading Basis Set <=

    Name: (AUG-CC-PVDZ AUX)
    Role: RIFIT
    Keyword: DF_BASIS_SAPT
    atoms 1-2, 10-11 entry N          line   158 file /theoryfs2/ds/csargent/miniconda3/envs/cle/share/psi4/basis/aug-cc-pvdz-ri.gbs 
    atoms 3-6, 12-15 entry H          line    30 file /theoryfs2/ds/csargent/miniconda3/envs/cle/share/psi4/basis/aug-cc-pvdz-ri.gbs 
    atoms 7-9, 16-18 entry C          line   112 file /theoryfs2/ds/csargent/miniconda3/envs/cle/share/psi4/basis/aug-cc-pvdz-ri.gbs 


  //>>>>>>>>>>>>>>>>>>>>>>>>>>>>>>>>>>>//
  //               SAPT0               //
  //<<<<<<<<<<<<<<<<<<<<<<<<<<<<<<<<<<<//


*** tstart() called on ds1
*** at Mon Oct  4 13:20:04 2021

        SAPT0  
    Ed Hohenstein
     6 June 2009

      Orbital Information
  --------------------------
    NSO        =       302
    NMO        =       302
    NRI        =       904
    NOCC A     =        18
    NOCC B     =        18
    FOCC A     =         5
    FOCC B     =         5
    NVIR A     =       284
    NVIR B     =       284

    Elst10,r            =    -0.000024213324 [Eh]
    Exch10              =     0.000000005220 [Eh]
    Exch10 (S^2)        =     0.000000005220 [Eh]

    Iter     Energy [mEh]          dE [mEh]         Residual      Time [s]
       1      -0.00008421       0.000084210       0.089514517             0
       2      -0.00007901      -0.000005196       0.024615170             0
       3      -0.00008507       0.000006059       0.010562281             1
       4      -0.00008687       0.000001801       0.001939752             1
       5      -0.00008673      -0.000000145       0.000814993             1
       6      -0.00008667      -0.000000062       0.000249896             1
       7      -0.00008668       0.000000010       0.000111207             1
       8      -0.00008668       0.000000005       0.000055975             1
       9      -0.00008668      -0.000000000       0.000019539             1
      10      -0.00008668      -0.000000001       0.000006511             1
      11      -0.00008668      -0.000000000       0.000002230             2
      12      -0.00008668       0.000000000       0.000000498             2

    CHF Iterations converged


    Iter     Energy [mEh]          dE [mEh]         Residual      Time [s]
       1      -0.00007528       0.000075280       0.088343840             0
       2      -0.00007102      -0.000004260       0.023137997             0
       3      -0.00007806       0.000007041       0.008010143             0
       4      -0.00007880       0.000000743       0.001956739             0
       5      -0.00007869      -0.000000113       0.000902792             0
       6      -0.00007864      -0.000000049       0.000415073             0
       7      -0.00007865       0.000000008       0.000175404             1
       8      -0.00007866       0.000000010       0.000066668             1
       9      -0.00007866      -0.000000000       0.000020994             1
      10      -0.00007866      -0.000000001       0.000006083             1
      11      -0.00007866      -0.000000000       0.000002058             1
      12      -0.00007866       0.000000000       0.000000601             1

    CHF Iterations converged

    Ind20,r (A<-B)      =    -0.000000086681 [Eh]
    Ind20,r (B<-A)      =    -0.000000078658 [Eh]
    Ind20,r             =    -0.000000165339 [Eh]
    Exch-Ind20,r (A<-B) =     0.000000003727 [Eh]
    Exch-Ind20,r (B<-A) =     0.000000003827 [Eh]
    Exch-Ind20,r        =     0.000000007554 [Eh]
    Disp20              =    -0.000008915484 [Eh]
    Disp20 (SS)         =    -0.000004457742 [Eh]
    Disp20 (OS)         =    -0.000004457742 [Eh]
    Exch-Disp20         =     0.000000000341 [Eh]
    Exch-Disp20 (SS)    =     0.000000000261 [Eh]
    Exch-Disp20 (OS)    =     0.000000000079 [Eh]

    SAPT Results 
  --------------------------------------------------------------------------------------------------------
    Electrostatics                 -0.02421332 [mEh]      -0.01519409 [kcal/mol]      -0.06357207 [kJ/mol]
      Elst10,r                     -0.02421332 [mEh]      -0.01519409 [kcal/mol]      -0.06357207 [kJ/mol]

    Exchange                        0.00000522 [mEh]       0.00000328 [kcal/mol]       0.00001370 [kJ/mol]
      Exch10                        0.00000522 [mEh]       0.00000328 [kcal/mol]       0.00001370 [kJ/mol]
      Exch10(S^2)                   0.00000522 [mEh]       0.00000328 [kcal/mol]       0.00001370 [kJ/mol]

    Induction                      -0.00003535 [mEh]      -0.00002218 [kcal/mol]      -0.00009282 [kJ/mol]
      Ind20,r                      -0.00016534 [mEh]      -0.00010375 [kcal/mol]      -0.00043410 [kJ/mol]
      Exch-Ind20,r                  0.00000755 [mEh]       0.00000474 [kcal/mol]       0.00001983 [kJ/mol]
      delta HF,r (2)                0.00012243 [mEh]       0.00007683 [kcal/mol]       0.00032145 [kJ/mol]

    Dispersion                     -0.00891514 [mEh]      -0.00559434 [kcal/mol]      -0.02340671 [kJ/mol]
      Disp20                       -0.00891548 [mEh]      -0.00559455 [kcal/mol]      -0.02340760 [kJ/mol]
      Exch-Disp20                   0.00000034 [mEh]       0.00000021 [kcal/mol]       0.00000089 [kJ/mol]
      Disp20 (SS)                  -0.00445774 [mEh]      -0.00279728 [kcal/mol]      -0.01170380 [kJ/mol]
      Disp20 (OS)                  -0.00445774 [mEh]      -0.00279728 [kcal/mol]      -0.01170380 [kJ/mol]
      Exch-Disp20 (SS)              0.00000026 [mEh]       0.00000016 [kcal/mol]       0.00000069 [kJ/mol]
      Exch-Disp20 (OS)              0.00000008 [mEh]       0.00000005 [kcal/mol]       0.00000021 [kJ/mol]

  Total HF                         -0.02424346 [mEh]      -0.01521300 [kcal/mol]      -0.06365118 [kJ/mol]
  Total SAPT0                      -0.03315860 [mEh]      -0.02080734 [kcal/mol]      -0.08705789 [kJ/mol]

  Special recipe for scaled SAPT0 (see Manual):
    Electrostatics sSAPT0          -0.02421332 [mEh]      -0.01519409 [kcal/mol]      -0.06357207 [kJ/mol]
    Exchange sSAPT0                 0.00000522 [mEh]       0.00000328 [kcal/mol]       0.00001370 [kJ/mol]
    Induction sSAPT0               -0.00003535 [mEh]      -0.00002218 [kcal/mol]      -0.00009282 [kJ/mol]
    Dispersion sSAPT0              -0.00891514 [mEh]      -0.00559434 [kcal/mol]      -0.02340671 [kJ/mol]
  Total sSAPT0                     -0.03315860 [mEh]      -0.02080734 [kcal/mol]      -0.08705789 [kJ/mol]
  --------------------------------------------------------------------------------------------------------

*** tstop() called on ds1 at Mon Oct  4 13:20:14 2021
Module time:
	user time   =      45.99 seconds =       0.77 minutes
	system time =       4.08 seconds =       0.07 minutes
	total time  =         10 seconds =       0.17 minutes
Total time:
	user time   =     109.73 seconds =       1.83 minutes
	system time =       5.42 seconds =       0.09 minutes
	total time  =         23 seconds =       0.38 minutes


Warning! sapt0 does not have an associated derived wavefunction.The returned wavefunction is the dimer SCF wavefunction.


    Psi4 stopped on: Monday, 04 October 2021 01:20PM
    Psi4 wall time for execution: 0:00:23.22

*** Psi4 exiting successfully. Buy a developer a beer!
