
    -----------------------------------------------------------------------
          Psi4: An Open-Source Ab Initio Electronic Structure Package
                               Psi4 1.4rc3 

                         Git: Rev {HEAD} 080dba6 


    D. G. A. Smith, L. A. Burns, A. C. Simmonett, R. M. Parrish,
    M. C. Schieber, R. Galvelis, P. Kraus, H. Kruse, R. Di Remigio,
    A. Alenaizan, A. M. James, S. Lehtola, J. P. Misiewicz, M. Scheurer,
    R. A. Shaw, J. B. Schriber, Y. Xie, Z. L. Glick, D. A. Sirianni,
    J. S. O'Brien, J. M. Waldrop, A. Kumar, E. G. Hohenstein,
    B. P. Pritchard, B. R. Brooks, H. F. Schaefer III, A. Yu. Sokolov,
    K. Patkowski, A. E. DePrince III, U. Bozkaya, R. A. King,
    F. A. Evangelista, J. M. Turney, T. D. Crawford, C. D. Sherrill,
    J. Chem. Phys. 152(18) 184108 (2020). https://doi.org/10.1063/5.0006002

                            Additional Code Authors
    E. T. Seidl, C. L. Janssen, E. F. Valeev, M. L. Leininger,
    J. F. Gonthier, R. M. Richard, H. R. McAlexander, M. Saitow, X. Wang,
    P. Verma, and M. H. Lechner

             Previous Authors, Complete List of Code Contributors,
                       and Citations for Specific Modules
    https://github.com/psi4/psi4/blob/master/codemeta.json
    https://github.com/psi4/psi4/graphs/contributors
    http://psicode.org/psi4manual/master/introduction.html#citing-psifour

    -----------------------------------------------------------------------


    Psi4 started on: Monday, 04 October 2021 03:47PM

    Process ID: 13837
    Host:       ds1
    PSIDATADIR: /theoryfs2/ds/csargent/miniconda3/envs/cle/share/psi4
    Memory:     500.0 MiB
    Threads:    6
    
  ==> Input File <==

--------------------------------------------------------------------------
# PSI4 file produced by CrystaLattE

# Generated from:               pyrazole.xyz
# Psithon input for N-mer:      2mer-0+2
# Number of atoms per monomer:  [9, 9]
# Number of replicas:           1
# COM priority:                 1.162423342399e-03
# Minimum COM separations:      5.033 
# Separation priority:          6.668210841932e-03
# Minimum monomer separations:  2.811 
# Cutoff priority:              1.255102220016e-03
# Nuclear repulsion energy:     468.57747558140574

memory 7 GB

molecule Dimer_0_2 {
  N            6.27981210      -4.25303372       0.19313865 
  N            6.06870777      -2.28125697       1.80544317 
  H            3.66871156      -5.64628941      -1.96684001 
  H            0.69034521      -2.37545694      -0.42864236 
  H            3.35917442       0.17650601       3.09265017 
  H            7.35266782      -1.99461311       2.90680702 
  C            3.77952586      -1.21508453       1.76858172 
  C            2.38242998      -2.55505538       0.04607681 
  C            4.01771468      -4.38410490      -0.88761863 
--
  N           -4.94029013      -2.29338878       4.85777613 
  N           -4.82142787      -4.33129582       6.39494984 
  H           -2.26712739       0.10752118       4.13974577 
  H            0.62750917      -2.33501756       6.89488328 
  H           -2.30891491      -6.04806657       8.79951959 
  H           -6.28383608      -5.14127288       6.78071517 
  C           -2.53859146      -4.66147149       7.42399869 
  C           -1.05559903      -2.73179927       6.53407622 
  C           -2.61690436      -1.34663146       4.94237828 
units = au
no_com
no_reorient
}

set {
  e_convergence 10
  d_convergence 10
  scf_type df
  mp2_type df
  cc_type df
  freeze_core true
}

energy('sapt0/aug-cc-pvdz')

--------------------------------------------------------------------------

  Memory set to   6.519 GiB by Python driver.

Scratch directory: /scratch/csargent/psi4.7158.66302/

Scratch directory: /scratch/csargent/psi4.7158.66302/

  //>>>>>>>>>>>>>>>>>>>>>>>>>>>>>>>>>>>//
  //              Dimer HF             //
  //<<<<<<<<<<<<<<<<<<<<<<<<<<<<<<<<<<<//


*** tstart() called on ds1
*** at Mon Oct  4 15:47:54 2021

   => Loading Basis Set <=

    Name: AUG-CC-PVDZ
    Role: ORBITAL
    Keyword: BASIS
    atoms 1-2, 10-11 entry N          line   218 file /theoryfs2/ds/csargent/miniconda3/envs/cle/share/psi4/basis/aug-cc-pvdz.gbs 
    atoms 3-6, 12-15 entry H          line    40 file /theoryfs2/ds/csargent/miniconda3/envs/cle/share/psi4/basis/aug-cc-pvdz.gbs 
    atoms 7-9, 16-18 entry C          line   182 file /theoryfs2/ds/csargent/miniconda3/envs/cle/share/psi4/basis/aug-cc-pvdz.gbs 


         ---------------------------------------------------------
                                   SCF
               by Justin Turney, Rob Parrish, Andy Simmonett
                          and Daniel G. A. Smith
                              RHF Reference
                        6 Threads,   6675 MiB Core
         ---------------------------------------------------------

  ==> Geometry <==

    Molecular point group: c1
    Full point group: C1

    Geometry (in Bohr), charge = 0, multiplicity = 1:

       Center              X                  Y                   Z               Mass       
    ------------   -----------------  -----------------  -----------------  -----------------
         N            6.279812100000    -4.253033720000     0.193138650000    14.003074004430
         N            6.068707770000    -2.281256970000     1.805443170000    14.003074004430
         H            3.668711560000    -5.646289410000    -1.966840010000     1.007825032230
         H            0.690345210000    -2.375456940000    -0.428642360000     1.007825032230
         H            3.359174420000     0.176506010000     3.092650170000     1.007825032230
         H            7.352667820000    -1.994613110000     2.906807020000     1.007825032230
         C            3.779525860000    -1.215084530000     1.768581720000    12.000000000000
         C            2.382429980000    -2.555055380000     0.046076810000    12.000000000000
         C            4.017714680000    -4.384104900000    -0.887618630000    12.000000000000
         N           -4.940290130000    -2.293388780000     4.857776130000    14.003074004430
         N           -4.821427870000    -4.331295820000     6.394949840000    14.003074004430
         H           -2.267127390000     0.107521180000     4.139745770000     1.007825032230
         H            0.627509170000    -2.335017560000     6.894883280000     1.007825032230
         H           -2.308914910000    -6.048066570000     8.799519590000     1.007825032230
         H           -6.283836080000    -5.141272880000     6.780715170000     1.007825032230
         C           -2.538591460000    -4.661471490000     7.423998690000    12.000000000000
         C           -1.055599030000    -2.731799270000     6.534076220000    12.000000000000
         C           -2.616904360000    -1.346631460000     4.942378280000    12.000000000000

  Running in c1 symmetry.

  Rotational constants: A =      0.02319  B =      0.01408  C =      0.00946 [cm^-1]
  Rotational constants: A =    695.09635  B =    422.09727  C =    283.49196 [MHz]
  Nuclear repulsion =  468.577475540079377

  Charge       = 0
  Multiplicity = 1
  Electrons    = 72
  Nalpha       = 36
  Nbeta        = 36

  ==> Algorithm <==

  SCF Algorithm Type is DF.
  DIIS enabled.
  MOM disabled.
  Fractional occupation disabled.
  Guess Type is SAD.
  Energy threshold   = 1.00e-10
  Density threshold  = 1.00e-10
  Integral threshold = 1.00e-12

  ==> Primary Basis <==

  Basis Set: AUG-CC-PVDZ
    Blend: AUG-CC-PVDZ
    Number of shells: 130
    Number of basis functions: 302
    Number of Cartesian functions: 322
    Spherical Harmonics?: true
    Max angular momentum: 2

   => Loading Basis Set <=

    Name: (AUG-CC-PVDZ AUX)
    Role: JKFIT
    Keyword: DF_BASIS_SCF
    atoms 1-2, 10-11 entry N          line   212 file /theoryfs2/ds/csargent/miniconda3/envs/cle/share/psi4/basis/aug-cc-pvdz-jkfit.gbs 
    atoms 3-6, 12-15 entry H          line    70 file /theoryfs2/ds/csargent/miniconda3/envs/cle/share/psi4/basis/aug-cc-pvdz-jkfit.gbs 
    atoms 7-9, 16-18 entry C          line   154 file /theoryfs2/ds/csargent/miniconda3/envs/cle/share/psi4/basis/aug-cc-pvdz-jkfit.gbs 

  ==> Integral Setup <==

  ==> DiskDFJK: Density-Fitted J/K Matrices <==

    J tasked:                  Yes
    K tasked:                  Yes
    wK tasked:                  No
    OpenMP threads:              6
    Integrals threads:           6
    Memory [MiB]:             5006
    Algorithm:                Core
    Integral Cache:           SAVE
    Schwarz Cutoff:          1E-12
    Fitting Condition:       1E-10

   => Auxiliary Basis Set <=

  Basis Set: (AUG-CC-PVDZ AUX)
    Blend: AUG-CC-PVDZ-JKFIT
    Number of shells: 376
    Number of basis functions: 1116
    Number of Cartesian functions: 1290
    Spherical Harmonics?: true
    Max angular momentum: 3

  Minimum eigenvalue in the overlap matrix is 2.1590954714E-05.
  Reciprocal condition number of the overlap matrix is 1.4979832893E-06.
    Using symmetric orthogonalization.

  ==> Pre-Iterations <==

  SCF Guess: Superposition of Atomic Densities via on-the-fly atomic UHF (no occupation information).

   -------------------------
    Irrep   Nso     Nmo    
   -------------------------
     A        302     302 
   -------------------------
    Total     302     302
   -------------------------

  ==> Iterations <==

                           Total Energy        Delta E     RMS |[F,P]|

   @DF-RHF iter SAD:  -449.51833816287524   -4.49518e+02   0.00000e+00 
   @DF-RHF iter   1:  -449.26975498275362    2.48583e-01   2.12837e-03 DIIS
   @DF-RHF iter   2:  -449.47819939995122   -2.08444e-01   9.75619e-04 DIIS
   @DF-RHF iter   3:  -449.52014190915639   -4.19425e-02   2.15028e-04 DIIS
   @DF-RHF iter   4:  -449.52299311882865   -2.85121e-03   8.85226e-05 DIIS
   @DF-RHF iter   5:  -449.52336937469016   -3.76256e-04   1.74608e-05 DIIS
   @DF-RHF iter   6:  -449.52340402359863   -3.46489e-05   7.35979e-06 DIIS
   @DF-RHF iter   7:  -449.52341189965028   -7.87605e-06   3.77019e-06 DIIS
   @DF-RHF iter   8:  -449.52341389197505   -1.99232e-06   1.41345e-06 DIIS
   @DF-RHF iter   9:  -449.52341429380306   -4.01828e-07   4.37033e-07 DIIS
   @DF-RHF iter  10:  -449.52341431677564   -2.29726e-08   1.17356e-07 DIIS
   @DF-RHF iter  11:  -449.52341431827296   -1.49731e-09   3.29682e-08 DIIS
   @DF-RHF iter  12:  -449.52341431838886   -1.15904e-10   1.25599e-08 DIIS
   @DF-RHF iter  13:  -449.52341431840409   -1.52340e-11   6.11884e-09 DIIS
   @DF-RHF iter  14:  -449.52341431840910   -5.00222e-12   2.51972e-09 DIIS
   @DF-RHF iter  15:  -449.52341431840983   -7.38964e-13   1.23680e-09 DIIS
   @DF-RHF iter  16:  -449.52341431840983    0.00000e+00   4.11053e-10 DIIS
   @DF-RHF iter  17:  -449.52341431840966    1.70530e-13   1.37491e-10 DIIS
   @DF-RHF iter  18:  -449.52341431841000   -3.41061e-13   4.05167e-11 DIIS
  Energy and wave function converged.


  ==> Post-Iterations <==

    Orbital Energies [Eh]
    ---------------------

    Doubly Occupied:                                                      

       1A    -15.638681     2A    -15.635160     3A    -15.595592  
       4A    -15.590753     5A    -11.282231     6A    -11.278202  
       7A    -11.241068     8A    -11.235797     9A    -11.212545  
      10A    -11.207242    11A     -1.389688    12A     -1.385536  
      13A     -1.124925    14A     -1.120515    15A     -1.069847  
      16A     -1.064963    17A     -0.876427    18A     -0.871072  
      19A     -0.840572    20A     -0.835165    21A     -0.759806  
      22A     -0.756581    23A     -0.649191    24A     -0.643904  
      25A     -0.624600    26A     -0.618713    27A     -0.611994  
      28A     -0.607651    29A     -0.586787    30A     -0.582520  
      31A     -0.464530    32A     -0.459948    33A     -0.375427  
      34A     -0.368661    35A     -0.350746    36A     -0.340819  

    Virtual:                                                              

      37A      0.027968    38A      0.033941    39A      0.044228  
      40A      0.047750    41A      0.054705    42A      0.062205  
      43A      0.068674    44A      0.073049    45A      0.092766  
      46A      0.109109    47A      0.114077    48A      0.118297  
      49A      0.123610    50A      0.130042    51A      0.133778  
      52A      0.134682    53A      0.138942    54A      0.147446  
      55A      0.150258    56A      0.157552    57A      0.158294  
      58A      0.167880    59A      0.169924    60A      0.174671  
      61A      0.177129    62A      0.183391    63A      0.187121  
      64A      0.191593    65A      0.193077    66A      0.207004  
      67A      0.210697    68A      0.212344    69A      0.217145  
      70A      0.224427    71A      0.234177    72A      0.242390  
      73A      0.248952    74A      0.262842    75A      0.264431  
      76A      0.271786    77A      0.274111    78A      0.283266  
      79A      0.286201    80A      0.293132    81A      0.298565  
      82A      0.306655    83A      0.310547    84A      0.322570  
      85A      0.327985    86A      0.353486    87A      0.359292  
      88A      0.367219    89A      0.375084    90A      0.386665  
      91A      0.396046    92A      0.401279    93A      0.404749  
      94A      0.410695    95A      0.420708    96A      0.424393  
      97A      0.432902    98A      0.433213    99A      0.441231  
     100A      0.450744   101A      0.454903   102A      0.456819  
     103A      0.465989   104A      0.472988   105A      0.487840  
     106A      0.496172   107A      0.502470   108A      0.504820  
     109A      0.518732   110A      0.523855   111A      0.530367  
     112A      0.535061   113A      0.552030   114A      0.557468  
     115A      0.567696   116A      0.581645   117A      0.588168  
     118A      0.597805   119A      0.601476   120A      0.609726  
     121A      0.611574   122A      0.627785   123A      0.640959  
     124A      0.642731   125A      0.654295   126A      0.658655  
     127A      0.678325   128A      0.687075   129A      0.688414  
     130A      0.693578   131A      0.702596   132A      0.707305  
     133A      0.713385   134A      0.724760   135A      0.725984  
     136A      0.741309   137A      0.744593   138A      0.753142  
     139A      0.755592   140A      0.765423   141A      0.772258  
     142A      0.787858   143A      0.796355   144A      0.801593  
     145A      0.812176   146A      0.830837   147A      0.835045  
     148A      0.847000   149A      0.853169   150A      0.855859  
     151A      0.858880   152A      0.860005   153A      0.876061  
     154A      0.884559   155A      0.893633   156A      0.902317  
     157A      0.917072   158A      0.928463   159A      0.938219  
     160A      0.945672   161A      0.957800   162A      0.964476  
     163A      0.981408   164A      0.991730   165A      1.000653  
     166A      1.006339   167A      1.026286   168A      1.039414  
     169A      1.051673   170A      1.059712   171A      1.066702  
     172A      1.079260   173A      1.101657   174A      1.109831  
     175A      1.121077   176A      1.131417   177A      1.147282  
     178A      1.157803   179A      1.160361   180A      1.171260  
     181A      1.189010   182A      1.194314   183A      1.209842  
     184A      1.235798   185A      1.249551   186A      1.259662  
     187A      1.276678   188A      1.294965   189A      1.326461  
     190A      1.332279   191A      1.344534   192A      1.354008  
     193A      1.377580   194A      1.388354   195A      1.423841  
     196A      1.431995   197A      1.484420   198A      1.492425  
     199A      1.519999   200A      1.537332   201A      1.560543  
     202A      1.564302   203A      1.599361   204A      1.601436  
     205A      1.617868   206A      1.622744   207A      1.639655  
     208A      1.661271   209A      1.667620   210A      1.690172  
     211A      1.699318   212A      1.701838   213A      1.724781  
     214A      1.736232   215A      1.756961   216A      1.762154  
     217A      1.773403   218A      1.790078   219A      1.793876  
     220A      1.807101   221A      1.833722   222A      1.895533  
     223A      1.907312   224A      1.917590   225A      1.953891  
     226A      1.964425   227A      1.986885   228A      2.000189  
     229A      2.004943   230A      2.019085   231A      2.050235  
     232A      2.055853   233A      2.077791   234A      2.103169  
     235A      2.117483   236A      2.138678   237A      2.169176  
     238A      2.182989   239A      2.203968   240A      2.218624  
     241A      2.230929   242A      2.245576   243A      2.264198  
     244A      2.273845   245A      2.294233   246A      2.300109  
     247A      2.339968   248A      2.347584   249A      2.378916  
     250A      2.396249   251A      2.400019   252A      2.411082  
     253A      2.419793   254A      2.443432   255A      2.456602  
     256A      2.461814   257A      2.473343   258A      2.479626  
     259A      2.571086   260A      2.573852   261A      2.580434  
     262A      2.588220   263A      2.604674   264A      2.633142  
     265A      2.660276   266A      2.668548   267A      2.739427  
     268A      2.753220   269A      2.832202   270A      2.836139  
     271A      2.845483   272A      2.855630   273A      2.914894  
     274A      2.918690   275A      2.922510   276A      2.942745  
     277A      3.006304   278A      3.024316   279A      3.061318  
     280A      3.074800   281A      3.105477   282A      3.118620  
     283A      3.149743   284A      3.171994   285A      3.210097  
     286A      3.229622   287A      3.257000   288A      3.276315  
     289A      3.306205   290A      3.342222   291A      3.402679  
     292A      3.435204   293A      3.535785   294A      3.541764  
     295A      3.691485   296A      3.698499   297A      3.896445  
     298A      3.908760   299A      4.236271   300A      4.256960  
     301A      4.481634   302A      4.486966  

    Final Occupation by Irrep:
              A 
    DOCC [    36 ]

  @DF-RHF Final Energy:  -449.52341431841000

   => Energetics <=

    Nuclear Repulsion Energy =            468.5774755400793765
    One-Electron Energy =               -1537.6060594527916692
    Two-Electron Energy =                 619.5051695943022878
    Total Energy =                       -449.5234143184100049

Computation Completed


Properties will be evaluated at   0.000000,   0.000000,   0.000000 [a0]

Properties computed using the SCF density matrix

  Nuclear Dipole Moment: [e a0]
     X:    46.7576      Y:  -216.7344      Z:   241.9430

  Electronic Dipole Moment: [e a0]
     X:   -46.9127      Y:   216.7272      Z:  -240.6800

  Dipole Moment: [e a0]
     X:    -0.1551      Y:    -0.0072      Z:     1.2629     Total:     1.2724

  Dipole Moment: [D]
     X:    -0.3941      Y:    -0.0182      Z:     3.2100     Total:     3.2342


*** tstop() called on ds1 at Mon Oct  4 15:48:00 2021
Module time:
	user time   =      34.65 seconds =       0.58 minutes
	system time =       0.71 seconds =       0.01 minutes
	total time  =          6 seconds =       0.10 minutes
Total time:
	user time   =      34.65 seconds =       0.58 minutes
	system time =       0.71 seconds =       0.01 minutes
	total time  =          6 seconds =       0.10 minutes

  //>>>>>>>>>>>>>>>>>>>>>>>>>>>>>>>>>>>//
  //            Monomer A HF           //
  //<<<<<<<<<<<<<<<<<<<<<<<<<<<<<<<<<<<//


*** tstart() called on ds1
*** at Mon Oct  4 15:48:00 2021

   => Loading Basis Set <=

    Name: AUG-CC-PVDZ
    Role: ORBITAL
    Keyword: BASIS
    atoms 1-2, 10-11 entry N          line   218 file /theoryfs2/ds/csargent/miniconda3/envs/cle/share/psi4/basis/aug-cc-pvdz.gbs 
    atoms 3-6, 12-15 entry H          line    40 file /theoryfs2/ds/csargent/miniconda3/envs/cle/share/psi4/basis/aug-cc-pvdz.gbs 
    atoms 7-9, 16-18 entry C          line   182 file /theoryfs2/ds/csargent/miniconda3/envs/cle/share/psi4/basis/aug-cc-pvdz.gbs 


         ---------------------------------------------------------
                                   SCF
               by Justin Turney, Rob Parrish, Andy Simmonett
                          and Daniel G. A. Smith
                              RHF Reference
                        6 Threads,   6675 MiB Core
         ---------------------------------------------------------

  ==> Geometry <==

    Molecular point group: c1
    Full point group: C1

    Geometry (in Bohr), charge = 0, multiplicity = 1:

       Center              X                  Y                   Z               Mass       
    ------------   -----------------  -----------------  -----------------  -----------------
         N            6.279812100000    -4.253033720000     0.193138650000    14.003074004430
         N            6.068707770000    -2.281256970000     1.805443170000    14.003074004430
         H            3.668711560000    -5.646289410000    -1.966840010000     1.007825032230
         H            0.690345210000    -2.375456940000    -0.428642360000     1.007825032230
         H            3.359174420000     0.176506010000     3.092650170000     1.007825032230
         H            7.352667820000    -1.994613110000     2.906807020000     1.007825032230
         C            3.779525860000    -1.215084530000     1.768581720000    12.000000000000
         C            2.382429980000    -2.555055380000     0.046076810000    12.000000000000
         C            4.017714680000    -4.384104900000    -0.887618630000    12.000000000000
      Gh(N)          -4.940290130000    -2.293388780000     4.857776130000    14.003074004430
      Gh(N)          -4.821427870000    -4.331295820000     6.394949840000    14.003074004430
      Gh(H)          -2.267127390000     0.107521180000     4.139745770000     1.007825032230
      Gh(H)           0.627509170000    -2.335017560000     6.894883280000     1.007825032230
      Gh(H)          -2.308914910000    -6.048066570000     8.799519590000     1.007825032230
      Gh(H)          -6.283836080000    -5.141272880000     6.780715170000     1.007825032230
      Gh(C)          -2.538591460000    -4.661471490000     7.423998690000    12.000000000000
      Gh(C)          -1.055599030000    -2.731799270000     6.534076220000    12.000000000000
      Gh(C)          -2.616904360000    -1.346631460000     4.942378280000    12.000000000000

  Running in c1 symmetry.

  Rotational constants: A =      0.02319  B =      0.01408  C =      0.00946 [cm^-1]
  Rotational constants: A =    695.09635  B =    422.09727  C =    283.49196 [MHz]
  Nuclear repulsion =  166.624056450327203

  Charge       = 0
  Multiplicity = 1
  Electrons    = 36
  Nalpha       = 18
  Nbeta        = 18

  ==> Algorithm <==

  SCF Algorithm Type is DF.
  DIIS enabled.
  MOM disabled.
  Fractional occupation disabled.
  Guess Type is SAD.
  Energy threshold   = 1.00e-10
  Density threshold  = 1.00e-10
  Integral threshold = 1.00e-12

  ==> Primary Basis <==

  Basis Set: AUG-CC-PVDZ
    Blend: AUG-CC-PVDZ
    Number of shells: 130
    Number of basis functions: 302
    Number of Cartesian functions: 322
    Spherical Harmonics?: true
    Max angular momentum: 2

   => Loading Basis Set <=

    Name: (AUG-CC-PVDZ AUX)
    Role: JKFIT
    Keyword: DF_BASIS_SCF
    atoms 1-2, 10-11 entry N          line   212 file /theoryfs2/ds/csargent/miniconda3/envs/cle/share/psi4/basis/aug-cc-pvdz-jkfit.gbs 
    atoms 3-6, 12-15 entry H          line    70 file /theoryfs2/ds/csargent/miniconda3/envs/cle/share/psi4/basis/aug-cc-pvdz-jkfit.gbs 
    atoms 7-9, 16-18 entry C          line   154 file /theoryfs2/ds/csargent/miniconda3/envs/cle/share/psi4/basis/aug-cc-pvdz-jkfit.gbs 

  ==> Integral Setup <==

  ==> DiskDFJK: Density-Fitted J/K Matrices <==

    J tasked:                  Yes
    K tasked:                  Yes
    wK tasked:                  No
    OpenMP threads:              6
    Integrals threads:           6
    Memory [MiB]:             5006
    Algorithm:                Core
    Integral Cache:           LOAD
    Schwarz Cutoff:          1E-12
    Fitting Condition:       1E-10

   => Auxiliary Basis Set <=

  Basis Set: (AUG-CC-PVDZ AUX)
    Blend: AUG-CC-PVDZ-JKFIT
    Number of shells: 376
    Number of basis functions: 1116
    Number of Cartesian functions: 1290
    Spherical Harmonics?: true
    Max angular momentum: 3

  Minimum eigenvalue in the overlap matrix is 2.1590954714E-05.
  Reciprocal condition number of the overlap matrix is 1.4979832893E-06.
    Using symmetric orthogonalization.

  ==> Pre-Iterations <==

  SCF Guess: Superposition of Atomic Densities via on-the-fly atomic UHF (no occupation information).

   -------------------------
    Irrep   Nso     Nmo    
   -------------------------
     A        302     302 
   -------------------------
    Total     302     302
   -------------------------

  ==> Iterations <==

                           Total Energy        Delta E     RMS |[F,P]|

   @DF-RHF iter SAD:  -224.72195074673354   -2.24722e+02   0.00000e+00 
   @DF-RHF iter   1:  -224.63588723616084    8.60635e-02   1.50636e-03 DIIS
   @DF-RHF iter   2:  -224.74025450359298   -1.04367e-01   6.89023e-04 DIIS
   @DF-RHF iter   3:  -224.76118747910149   -2.09330e-02   1.48793e-04 DIIS
   @DF-RHF iter   4:  -224.76257487775055   -1.38740e-03   6.05613e-05 DIIS
   @DF-RHF iter   5:  -224.76275353996434   -1.78662e-04   1.20216e-05 DIIS
   @DF-RHF iter   6:  -224.76277056072925   -1.70208e-05   4.97187e-06 DIIS
   @DF-RHF iter   7:  -224.76277452348796   -3.96276e-06   2.19248e-06 DIIS
   @DF-RHF iter   8:  -224.76277528656937   -7.63081e-07   1.01841e-06 DIIS
   @DF-RHF iter   9:  -224.76277545502927   -1.68460e-07   2.83636e-07 DIIS
   @DF-RHF iter  10:  -224.76277546388152   -8.85225e-09   8.56309e-08 DIIS
   @DF-RHF iter  11:  -224.76277546457371   -6.92182e-10   2.00013e-08 DIIS
   @DF-RHF iter  12:  -224.76277546461947   -4.57590e-11   5.83418e-09 DIIS
   @DF-RHF iter  13:  -224.76277546462393   -4.46221e-12   2.85083e-09 DIIS
   @DF-RHF iter  14:  -224.76277546462481   -8.81073e-13   9.85114e-10 DIIS
   @DF-RHF iter  15:  -224.76277546462518   -3.69482e-13   4.18788e-10 DIIS
   @DF-RHF iter  16:  -224.76277546462489    2.84217e-13   1.26700e-10 DIIS
   @DF-RHF iter  17:  -224.76277546462524   -3.41061e-13   4.48716e-11 DIIS
  Energy and wave function converged.


  ==> Post-Iterations <==

    Orbital Energies [Eh]
    ---------------------

    Doubly Occupied:                                                      

       1A    -15.636249     2A    -15.592325     3A    -11.279796  
       4A    -11.237757     5A    -11.209802     6A     -1.386898  
       7A     -1.121886     8A     -1.066864     9A     -0.872752  
      10A     -0.837035    11A     -0.757285    12A     -0.645732  
      13A     -0.620814    14A     -0.609138    15A     -0.583879  
      16A     -0.461403    17A     -0.370721    18A     -0.346046  

    Virtual:                                                              

      19A      0.021544    20A      0.034449    21A      0.038035  
      22A      0.044354    23A      0.053930    24A      0.061440  
      25A      0.064745    26A      0.070182    27A      0.085278  
      28A      0.095739    29A      0.106320    30A      0.108747  
      31A      0.116377    32A      0.121071    33A      0.124795  
      34A      0.127996    35A      0.134884    36A      0.137652  
      37A      0.141682    38A      0.151318    39A      0.157625  
      40A      0.165734    41A      0.170587    42A      0.173694  
      43A      0.175880    44A      0.181684    45A      0.187438  
      46A      0.187871    47A      0.191675    48A      0.205675  
      49A      0.206208    50A      0.211823    51A      0.218192  
      52A      0.226016    53A      0.233340    54A      0.243921  
      55A      0.248104    56A      0.250899    57A      0.258598  
      58A      0.261391    59A      0.267488    60A      0.275104  
      61A      0.281047    62A      0.284814    63A      0.294572  
      64A      0.299330    65A      0.309329    66A      0.332453  
      67A      0.342942    68A      0.354915    69A      0.364211  
      70A      0.371973    71A      0.385686    72A      0.392118  
      73A      0.399535    74A      0.401661    75A      0.412274  
      76A      0.418578    77A      0.430300    78A      0.440981  
      79A      0.445612    80A      0.448882    81A      0.454668  
      82A      0.458880    83A      0.463656    84A      0.474499  
      85A      0.480576    86A      0.494339    87A      0.499364  
      88A      0.505285    89A      0.510823    90A      0.518957  
      91A      0.524178    92A      0.527978    93A      0.541515  
      94A      0.554050    95A      0.559129    96A      0.568079  
      97A      0.571304    98A      0.577303    99A      0.591767  
     100A      0.600708   101A      0.605911   102A      0.617229  
     103A      0.622485   104A      0.623295   105A      0.632633  
     106A      0.640210   107A      0.662391   108A      0.674875  
     109A      0.684342   110A      0.692437   111A      0.694056  
     112A      0.702103   113A      0.713975   114A      0.727179  
     115A      0.735153   116A      0.743551   117A      0.746827  
     118A      0.751223   119A      0.761487   120A      0.764746  
     121A      0.773475   122A      0.792722   123A      0.796485  
     124A      0.803907   125A      0.822231   126A      0.829284  
     127A      0.835101   128A      0.844815   129A      0.849757  
     130A      0.856265   131A      0.865258   132A      0.875919  
     133A      0.883187   134A      0.893081   135A      0.900426  
     136A      0.904482   137A      0.911986   138A      0.928298  
     139A      0.938089   140A      0.946209   141A      0.959762  
     142A      0.969534   143A      0.996466   144A      1.003453  
     145A      1.011401   146A      1.014291   147A      1.026074  
     148A      1.041612   149A      1.047584   150A      1.061326  
     151A      1.076759   152A      1.084479   153A      1.100618  
     154A      1.107549   155A      1.127901   156A      1.141412  
     157A      1.147435   158A      1.163249   159A      1.166275  
     160A      1.178508   161A      1.191402   162A      1.198801  
     163A      1.222233   164A      1.238871   165A      1.241474  
     166A      1.257515   167A      1.263791   168A      1.276180  
     169A      1.290984   170A      1.323093   171A      1.335548  
     172A      1.341407   173A      1.354459   174A      1.372785  
     175A      1.387883   176A      1.401494   177A      1.428899  
     178A      1.457743   179A      1.463377   180A      1.488534  
     181A      1.501339   182A      1.520457   183A      1.547146  
     184A      1.562617   185A      1.589446   186A      1.641886  
     187A      1.646914   188A      1.678534   189A      1.684969  
     190A      1.704226   191A      1.708435   192A      1.739275  
     193A      1.771733   194A      1.781664   195A      1.799772  
     196A      1.858375   197A      1.894008   198A      1.964406  
     199A      1.974393   200A      1.999271   201A      2.038728  
     202A      2.062520   203A      2.077810   204A      2.125087  
     205A      2.133220   206A      2.168238   207A      2.196243  
     208A      2.203122   209A      2.218328   210A      2.236334  
     211A      2.250190   212A      2.263894   213A      2.270968  
     214A      2.284632   215A      2.290904   216A      2.314727  
     217A      2.347576   218A      2.363089   219A      2.374835  
     220A      2.393250   221A      2.409437   222A      2.416640  
     223A      2.440416   224A      2.456460   225A      2.467151  
     226A      2.483712   227A      2.498910   228A      2.505527  
     229A      2.525347   230A      2.531852   231A      2.573317  
     232A      2.593782   233A      2.599522   234A      2.622388  
     235A      2.647078   236A      2.664242   237A      2.692369  
     238A      2.726378   239A      2.741947   240A      2.765156  
     241A      2.833791   242A      2.848965   243A      2.860642  
     244A      2.887545   245A      2.908754   246A      2.920422  
     247A      2.938516   248A      2.983648   249A      3.019257  
     250A      3.038365   251A      3.070139   252A      3.104215  
     253A      3.116571   254A      3.161322   255A      3.163408  
     256A      3.212434   257A      3.241159   258A      3.261788  
     259A      3.268200   260A      3.307471   261A      3.327266  
     262A      3.367910   263A      3.410098   264A      3.437672  
     265A      3.443854   266A      3.467657   267A      3.516888  
     268A      3.538128   269A      3.549676   270A      3.647340  
     271A      3.686668   272A      3.702471   273A      3.754860  
     274A      3.801126   275A      3.858404   276A      3.907530  
     277A      4.012692   278A      4.057193   279A      4.130846  
     280A      4.236097   281A      4.299993   282A      4.465830  
     283A      4.499639   284A      4.697457   285A      4.740468  
     286A      4.792859   287A      4.824209   288A      5.011513  
     289A      5.130762   290A      5.247787   291A      5.546117  
     292A      5.683607   293A      5.833550   294A      6.109881  
     295A      6.324068   296A      6.708071   297A      6.970643  
     298A     18.120122   299A     18.680069   300A     19.428920  
     301A     25.244329   302A     25.715944  

    Final Occupation by Irrep:
              A 
    DOCC [    18 ]

  @DF-RHF Final Energy:  -224.76277546462524

   => Energetics <=

    Nuclear Repulsion Energy =            166.6240564503272026
    One-Electron Energy =                -633.5008961747621470
    Two-Electron Energy =                 242.1140642598097088
    Total Energy =                       -224.7627754646252356

Computation Completed


Properties will be evaluated at   0.000000,   0.000000,   0.000000 [a0]

Properties computed using the SCF density matrix

  Nuclear Dipole Moment: [e a0]
     X:   162.5886      Y:  -104.5054      Z:    23.1563

  Electronic Dipole Moment: [e a0]
     X:  -162.9909      Y:   105.1360      Z:   -22.5778

  Dipole Moment: [e a0]
     X:    -0.4023      Y:     0.6306      Z:     0.5785     Total:     0.9456

  Dipole Moment: [D]
     X:    -1.0226      Y:     1.6029      Z:     1.4703     Total:     2.4035


*** tstop() called on ds1 at Mon Oct  4 15:48:05 2021
Module time:
	user time   =      23.99 seconds =       0.40 minutes
	system time =       0.42 seconds =       0.01 minutes
	total time  =          5 seconds =       0.08 minutes
Total time:
	user time   =      58.81 seconds =       0.98 minutes
	system time =       1.14 seconds =       0.02 minutes
	total time  =         11 seconds =       0.18 minutes

  //>>>>>>>>>>>>>>>>>>>>>>>>>>>>>>>>>>>//
  //            Monomer B HF           //
  //<<<<<<<<<<<<<<<<<<<<<<<<<<<<<<<<<<<//


*** tstart() called on ds1
*** at Mon Oct  4 15:48:05 2021

   => Loading Basis Set <=

    Name: AUG-CC-PVDZ
    Role: ORBITAL
    Keyword: BASIS
    atoms 1-2, 10-11 entry N          line   218 file /theoryfs2/ds/csargent/miniconda3/envs/cle/share/psi4/basis/aug-cc-pvdz.gbs 
    atoms 3-6, 12-15 entry H          line    40 file /theoryfs2/ds/csargent/miniconda3/envs/cle/share/psi4/basis/aug-cc-pvdz.gbs 
    atoms 7-9, 16-18 entry C          line   182 file /theoryfs2/ds/csargent/miniconda3/envs/cle/share/psi4/basis/aug-cc-pvdz.gbs 


         ---------------------------------------------------------
                                   SCF
               by Justin Turney, Rob Parrish, Andy Simmonett
                          and Daniel G. A. Smith
                              RHF Reference
                        6 Threads,   6675 MiB Core
         ---------------------------------------------------------

  ==> Geometry <==

    Molecular point group: c1
    Full point group: C1

    Geometry (in Bohr), charge = 0, multiplicity = 1:

       Center              X                  Y                   Z               Mass       
    ------------   -----------------  -----------------  -----------------  -----------------
      Gh(N)           6.279812100000    -4.253033720000     0.193138650000    14.003074004430
      Gh(N)           6.068707770000    -2.281256970000     1.805443170000    14.003074004430
      Gh(H)           3.668711560000    -5.646289410000    -1.966840010000     1.007825032230
      Gh(H)           0.690345210000    -2.375456940000    -0.428642360000     1.007825032230
      Gh(H)           3.359174420000     0.176506010000     3.092650170000     1.007825032230
      Gh(H)           7.352667820000    -1.994613110000     2.906807020000     1.007825032230
      Gh(C)           3.779525860000    -1.215084530000     1.768581720000    12.000000000000
      Gh(C)           2.382429980000    -2.555055380000     0.046076810000    12.000000000000
      Gh(C)           4.017714680000    -4.384104900000    -0.887618630000    12.000000000000
         N           -4.940290130000    -2.293388780000     4.857776130000    14.003074004430
         N           -4.821427870000    -4.331295820000     6.394949840000    14.003074004430
         H           -2.267127390000     0.107521180000     4.139745770000     1.007825032230
         H            0.627509170000    -2.335017560000     6.894883280000     1.007825032230
         H           -2.308914910000    -6.048066570000     8.799519590000     1.007825032230
         H           -6.283836080000    -5.141272880000     6.780715170000     1.007825032230
         C           -2.538591460000    -4.661471490000     7.423998690000    12.000000000000
         C           -1.055599030000    -2.731799270000     6.534076220000    12.000000000000
         C           -2.616904360000    -1.346631460000     4.942378280000    12.000000000000

  Running in c1 symmetry.

  Rotational constants: A =      0.02319  B =      0.01408  C =      0.00946 [cm^-1]
  Rotational constants: A =    695.09635  B =    422.09727  C =    283.49196 [MHz]
  Nuclear repulsion =  166.628602785367207

  Charge       = 0
  Multiplicity = 1
  Electrons    = 36
  Nalpha       = 18
  Nbeta        = 18

  ==> Algorithm <==

  SCF Algorithm Type is DF.
  DIIS enabled.
  MOM disabled.
  Fractional occupation disabled.
  Guess Type is SAD.
  Energy threshold   = 1.00e-10
  Density threshold  = 1.00e-10
  Integral threshold = 1.00e-12

  ==> Primary Basis <==

  Basis Set: AUG-CC-PVDZ
    Blend: AUG-CC-PVDZ
    Number of shells: 130
    Number of basis functions: 302
    Number of Cartesian functions: 322
    Spherical Harmonics?: true
    Max angular momentum: 2

   => Loading Basis Set <=

    Name: (AUG-CC-PVDZ AUX)
    Role: JKFIT
    Keyword: DF_BASIS_SCF
    atoms 1-2, 10-11 entry N          line   212 file /theoryfs2/ds/csargent/miniconda3/envs/cle/share/psi4/basis/aug-cc-pvdz-jkfit.gbs 
    atoms 3-6, 12-15 entry H          line    70 file /theoryfs2/ds/csargent/miniconda3/envs/cle/share/psi4/basis/aug-cc-pvdz-jkfit.gbs 
    atoms 7-9, 16-18 entry C          line   154 file /theoryfs2/ds/csargent/miniconda3/envs/cle/share/psi4/basis/aug-cc-pvdz-jkfit.gbs 

  ==> Integral Setup <==

  ==> DiskDFJK: Density-Fitted J/K Matrices <==

    J tasked:                  Yes
    K tasked:                  Yes
    wK tasked:                  No
    OpenMP threads:              6
    Integrals threads:           6
    Memory [MiB]:             5006
    Algorithm:                Core
    Integral Cache:           LOAD
    Schwarz Cutoff:          1E-12
    Fitting Condition:       1E-10

   => Auxiliary Basis Set <=

  Basis Set: (AUG-CC-PVDZ AUX)
    Blend: AUG-CC-PVDZ-JKFIT
    Number of shells: 376
    Number of basis functions: 1116
    Number of Cartesian functions: 1290
    Spherical Harmonics?: true
    Max angular momentum: 3

  Minimum eigenvalue in the overlap matrix is 2.1590954714E-05.
  Reciprocal condition number of the overlap matrix is 1.4979832893E-06.
    Using symmetric orthogonalization.

  ==> Pre-Iterations <==

  SCF Guess: Superposition of Atomic Densities via on-the-fly atomic UHF (no occupation information).

   -------------------------
    Irrep   Nso     Nmo    
   -------------------------
     A        302     302 
   -------------------------
    Total     302     302
   -------------------------

  ==> Iterations <==

                           Total Energy        Delta E     RMS |[F,P]|

   @DF-RHF iter SAD:  -224.72251112168300   -2.24723e+02   0.00000e+00 
   @DF-RHF iter   1:  -224.63599556811781    8.65156e-02   1.50672e-03 DIIS
   @DF-RHF iter   2:  -224.74036608477869   -1.04371e-01   6.89248e-04 DIIS
   @DF-RHF iter   3:  -224.76131027831806   -2.09442e-02   1.48824e-04 DIIS
   @DF-RHF iter   4:  -224.76269752001045   -1.38724e-03   6.05509e-05 DIIS
   @DF-RHF iter   5:  -224.76287609872236   -1.78579e-04   1.20141e-05 DIIS
   @DF-RHF iter   6:  -224.76289306901927   -1.69703e-05   4.96203e-06 DIIS
   @DF-RHF iter   7:  -224.76289701135485   -3.94234e-06   2.18717e-06 DIIS
   @DF-RHF iter   8:  -224.76289777108795   -7.59733e-07   1.01768e-06 DIIS
   @DF-RHF iter   9:  -224.76289793931537   -1.68227e-07   2.83729e-07 DIIS
   @DF-RHF iter  10:  -224.76289794818223   -8.86686e-09   8.56716e-08 DIIS
   @DF-RHF iter  11:  -224.76289794887481   -6.92580e-10   1.99687e-08 DIIS
   @DF-RHF iter  12:  -224.76289794892114   -4.63274e-11   5.80638e-09 DIIS
   @DF-RHF iter  13:  -224.76289794892546   -4.32010e-12   2.82783e-09 DIIS
   @DF-RHF iter  14:  -224.76289794892600   -5.40012e-13   9.73014e-10 DIIS
   @DF-RHF iter  15:  -224.76289794892648   -4.83169e-13   4.15157e-10 DIIS
   @DF-RHF iter  16:  -224.76289794892642    5.68434e-14   1.26114e-10 DIIS
   @DF-RHF iter  17:  -224.76289794892634    8.52651e-14   4.48111e-11 DIIS
  Energy and wave function converged.


  ==> Post-Iterations <==

    Orbital Energies [Eh]
    ---------------------

    Doubly Occupied:                                                      

       1A    -15.636224     2A    -15.592307     3A    -11.279853  
       4A    -11.237626     5A    -11.209742     6A     -1.386962  
       7A     -1.121851     8A     -1.066878     9A     -0.872729  
      10A     -0.836984    11A     -0.757234    12A     -0.645728  
      13A     -0.620779    14A     -0.609161    15A     -0.583848  
      16A     -0.461365    17A     -0.370702    18A     -0.346038  

    Virtual:                                                              

      19A      0.024586    20A      0.033175    21A      0.040289  
      22A      0.045163    23A      0.055313    24A      0.062739  
      25A      0.068989    26A      0.073619    27A      0.086451  
      28A      0.090553    29A      0.107240    30A      0.114258  
      31A      0.117642    32A      0.122273    33A      0.126272  
      34A      0.130972    35A      0.134230    36A      0.137667  
      37A      0.148000    38A      0.151475    39A      0.157168  
      40A      0.166691    41A      0.170640    42A      0.177110  
      43A      0.180235    44A      0.182280    45A      0.188060  
      46A      0.192658    47A      0.194524    48A      0.203456  
      49A      0.205848    50A      0.211854    51A      0.219553  
      52A      0.228616    53A      0.236235    54A      0.242965  
      55A      0.249658    56A      0.254902    57A      0.257067  
      58A      0.263448    59A      0.268635    60A      0.278040  
      61A      0.283087    62A      0.292083    63A      0.294623  
      64A      0.306415    65A      0.313033    66A      0.334141  
      67A      0.338777    68A      0.356062    69A      0.365462  
      70A      0.380557    71A      0.387715    72A      0.391874  
      73A      0.399334    74A      0.402816    75A      0.408630  
      76A      0.423040    77A      0.431768    78A      0.434029  
      79A      0.440816    80A      0.449660    81A      0.457986  
      82A      0.465352    83A      0.478866    84A      0.480943  
      85A      0.484181    86A      0.492536    87A      0.503613  
      88A      0.510081    89A      0.517346    90A      0.523861  
      91A      0.528067    92A      0.535487    93A      0.538433  
      94A      0.547890    95A      0.553144    96A      0.564686  
      97A      0.575919    98A      0.587948    99A      0.597135  
     100A      0.602694   101A      0.607659   102A      0.612294  
     103A      0.620995   104A      0.625922   105A      0.634014  
     106A      0.653268   107A      0.658135   108A      0.671147  
     109A      0.676228   110A      0.690408   111A      0.701341  
     112A      0.706892   113A      0.718451   114A      0.729952  
     115A      0.736417   116A      0.741797   117A      0.750993  
     118A      0.758608   119A      0.765343   120A      0.773333  
     121A      0.779626   122A      0.784736   123A      0.794542  
     124A      0.796578   125A      0.811953   126A      0.838505  
     127A      0.838867   128A      0.846168   129A      0.855971  
     130A      0.862022   131A      0.868326   132A      0.880778  
     133A      0.890515   134A      0.894435   135A      0.902826  
     136A      0.913355   137A      0.921331   138A      0.923776  
     139A      0.934084   140A      0.949244   141A      0.962333  
     142A      0.984082   143A      0.988897   144A      1.000102  
     145A      1.014923   146A      1.028831   147A      1.037579  
     148A      1.056225   149A      1.057997   150A      1.068533  
     151A      1.076745   152A      1.091052   153A      1.097979  
     154A      1.115251   155A      1.116319   156A      1.133837  
     157A      1.150366   158A      1.156265   159A      1.174435  
     160A      1.182145   161A      1.193186   162A      1.194442  
     163A      1.214231   164A      1.218280   165A      1.242560  
     166A      1.258978   167A      1.273376   168A      1.277677  
     169A      1.295803   170A      1.316549   171A      1.330028  
     172A      1.350296   173A      1.363609   174A      1.387714  
     175A      1.394311   176A      1.402988   177A      1.452049  
     178A      1.458905   179A      1.464499   180A      1.500000  
     181A      1.514309   182A      1.523236   183A      1.532039  
     184A      1.569289   185A      1.606490   186A      1.633285  
     187A      1.649556   188A      1.688590   189A      1.697047  
     190A      1.702377   191A      1.717680   192A      1.726736  
     193A      1.742423   194A      1.783155   195A      1.788824  
     196A      1.870156   197A      1.911179   198A      1.956959  
     199A      1.968744   200A      2.012070   201A      2.039002  
     202A      2.062577   203A      2.081786   204A      2.112298  
     205A      2.157785   206A      2.173139   207A      2.190153  
     208A      2.203106   209A      2.224124   210A      2.238159  
     211A      2.245786   212A      2.261729   213A      2.276444  
     214A      2.289522   215A      2.298710   216A      2.327434  
     217A      2.348105   218A      2.351914   219A      2.380701  
     220A      2.388294   221A      2.399835   222A      2.401489  
     223A      2.427510   224A      2.459697   225A      2.471440  
     226A      2.487112   227A      2.496977   228A      2.520935  
     229A      2.530921   230A      2.554257   231A      2.569846  
     232A      2.588347   233A      2.595832   234A      2.600045  
     235A      2.651737   236A      2.664605   237A      2.688359  
     238A      2.736534   239A      2.757798   240A      2.773897  
     241A      2.838836   242A      2.848103   243A      2.864088  
     244A      2.888874   245A      2.920444   246A      2.923538  
     247A      2.933080   248A      2.973779   249A      3.021187  
     250A      3.044022   251A      3.068761   252A      3.113454  
     253A      3.123375   254A      3.164640   255A      3.180894  
     256A      3.209066   257A      3.233438   258A      3.267441  
     259A      3.271885   260A      3.303175   261A      3.319673  
     262A      3.392487   263A      3.411281   264A      3.442519  
     265A      3.459627   266A      3.486291   267A      3.531948  
     268A      3.544287   269A      3.556040   270A      3.645591  
     271A      3.686928   272A      3.709650   273A      3.756215  
     274A      3.782278   275A      3.870254   276A      3.899305  
     277A      4.028586   278A      4.047701   279A      4.151815  
     280A      4.248736   281A      4.272275   282A      4.474295  
     283A      4.485052   284A      4.677036   285A      4.737202  
     286A      4.792930   287A      4.840246   288A      5.030301  
     289A      5.102536   290A      5.254310   291A      5.568132  
     292A      5.693417   293A      5.839581   294A      6.114277  
     295A      6.329846   296A      6.719356   297A      6.975993  
     298A     18.122789   299A     18.685039   300A     19.437061  
     301A     25.248039   302A     25.712772  

    Final Occupation by Irrep:
              A 
    DOCC [    18 ]

  @DF-RHF Final Energy:  -224.76289794892634

   => Energetics <=

    Nuclear Repulsion Energy =            166.6286027853672067
    One-Electron Energy =                -633.5109821958235443
    Two-Electron Energy =                 242.1194814615300004
    Total Energy =                       -224.7628979489263372

Computation Completed


Properties will be evaluated at   0.000000,   0.000000,   0.000000 [a0]

Properties computed using the SCF density matrix

  Nuclear Dipole Moment: [e a0]
     X:  -115.8310      Y:  -112.2290      Z:   218.7867

  Electronic Dipole Moment: [e a0]
     X:   116.1214      Y:   111.6646      Z:  -218.0833

  Dipole Moment: [e a0]
     X:     0.2905      Y:    -0.5644      Z:     0.7034     Total:     0.9475

  Dipole Moment: [D]
     X:     0.7383      Y:    -1.4345      Z:     1.7879     Total:     2.4082


*** tstop() called on ds1 at Mon Oct  4 15:48:10 2021
Module time:
	user time   =      24.04 seconds =       0.40 minutes
	system time =       0.41 seconds =       0.01 minutes
	total time  =          5 seconds =       0.08 minutes
Total time:
	user time   =      83.02 seconds =       1.38 minutes
	system time =       1.55 seconds =       0.03 minutes
	total time  =         16 seconds =       0.27 minutes
  Constructing Basis Sets for SAPT...

   => Loading Basis Set <=

    Name: (AUG-CC-PVDZ AUX)
    Role: RIFIT
    Keyword: DF_BASIS_SAPT
    atoms 1-2, 10-11 entry N          line   158 file /theoryfs2/ds/csargent/miniconda3/envs/cle/share/psi4/basis/aug-cc-pvdz-ri.gbs 
    atoms 3-6, 12-15 entry H          line    30 file /theoryfs2/ds/csargent/miniconda3/envs/cle/share/psi4/basis/aug-cc-pvdz-ri.gbs 
    atoms 7-9, 16-18 entry C          line   112 file /theoryfs2/ds/csargent/miniconda3/envs/cle/share/psi4/basis/aug-cc-pvdz-ri.gbs 


  //>>>>>>>>>>>>>>>>>>>>>>>>>>>>>>>>>>>//
  //               SAPT0               //
  //<<<<<<<<<<<<<<<<<<<<<<<<<<<<<<<<<<<//


*** tstart() called on ds1
*** at Mon Oct  4 15:48:10 2021

        SAPT0  
    Ed Hohenstein
     6 June 2009

      Orbital Information
  --------------------------
    NSO        =       302
    NMO        =       302
    NRI        =       904
    NOCC A     =        18
    NOCC B     =        18
    FOCC A     =         5
    FOCC B     =         5
    NVIR A     =       284
    NVIR B     =       284

    Elst10,r            =    -0.000143649946 [Eh]
    Exch10              =     0.002701097335 [Eh]
    Exch10 (S^2)        =     0.002694364868 [Eh]

    Iter     Energy [mEh]          dE [mEh]         Residual      Time [s]
       1      -0.53513543       0.535135427       3.501306148             0
       2      -0.63641381       0.101278380       1.724807057             0
       3      -0.66787657       0.031462760       0.348729891             0
       4      -0.66573969      -0.002136876       0.232271254             0
       5      -0.66437042      -0.001369270       0.066604480             1
       6      -0.66486988       0.000499455       0.036001771             1
       7      -0.66497535       0.000105474       0.011745036             1
       8      -0.66493145      -0.000043905       0.004171013             1
       9      -0.66492028      -0.000011164       0.001249614             1
      10      -0.66492217       0.000001893       0.000458896             1
      11      -0.66492349       0.000001312       0.000150894             1
      12      -0.66492325      -0.000000233       0.000058972             1
      13      -0.66492309      -0.000000162       0.000015728             2
      14      -0.66492316       0.000000065       0.000004547             2
      15      -0.66492315      -0.000000003       0.000001556             2
      16      -0.66492315      -0.000000004       0.000000384             2

    CHF Iterations converged


    Iter     Energy [mEh]          dE [mEh]         Residual      Time [s]
       1      -0.41882357       0.418823567       2.960362122             0
       2      -0.49118654       0.072362973       1.355145401             0
       3      -0.51155543       0.020368888       0.248670680             0
       4      -0.51110743      -0.000447996       0.102336935             0
       5      -0.51029892      -0.000808512       0.032207420             1
       6      -0.51038518       0.000086264       0.014714041             1
       7      -0.51045474       0.000069562       0.004789914             1
       8      -0.51044010      -0.000014644       0.001490083             1
       9      -0.51043623      -0.000003872       0.000474893             1
      10      -0.51043631       0.000000085       0.000153846             1
      11      -0.51043670       0.000000382       0.000056741             1
      12      -0.51043679       0.000000098       0.000015849             1
      13      -0.51043672      -0.000000070       0.000005456             2
      14      -0.51043674       0.000000015       0.000002440             2
      15      -0.51043674       0.000000003       0.000000753             2

    CHF Iterations converged

    Ind20,r (A<-B)      =    -0.000664923149 [Eh]
    Ind20,r (B<-A)      =    -0.000510436742 [Eh]
    Ind20,r             =    -0.001175359891 [Eh]
    Exch-Ind20,r (A<-B) =     0.000612328620 [Eh]
    Exch-Ind20,r (B<-A) =     0.000459637630 [Eh]
    Exch-Ind20,r        =     0.001071966250 [Eh]
    Disp20              =    -0.004052033552 [Eh]
    Disp20 (SS)         =    -0.002026016776 [Eh]
    Disp20 (OS)         =    -0.002026016776 [Eh]
    Exch-Disp20         =     0.000402928001 [Eh]
    Exch-Disp20 (SS)    =     0.000260234463 [Eh]
    Exch-Disp20 (OS)    =     0.000142693538 [Eh]

    SAPT Results 
  --------------------------------------------------------------------------------------------------------
    Electrostatics                 -0.14364995 [mEh]      -0.09014170 [kcal/mol]      -0.37715288 [kJ/mol]
      Elst10,r                     -0.14364995 [mEh]      -0.09014170 [kcal/mol]      -0.37715288 [kJ/mol]

    Exchange                        2.70109734 [mEh]       1.69496417 [kcal/mol]       7.09173008 [kJ/mol]
      Exch10                        2.70109734 [mEh]       1.69496417 [kcal/mol]       7.09173008 [kJ/mol]
      Exch10(S^2)                   2.69436487 [mEh]       1.69073948 [kcal/mol]       7.07405399 [kJ/mol]

    Induction                      -0.29835225 [mEh]      -0.18721886 [kcal/mol]      -0.78332372 [kJ/mol]
      Ind20,r                      -1.17535989 [mEh]      -0.73754947 [kcal/mol]      -3.08590697 [kJ/mol]
      Exch-Ind20,r                  1.07196625 [mEh]       0.67266898 [kcal/mol]       2.81444700 [kJ/mol]
      delta HF,r (2)               -0.19495861 [mEh]      -0.12233837 [kcal/mol]      -0.51186375 [kJ/mol]

    Dispersion                     -3.64910555 [mEh]      -2.28984830 [kcal/mol]      -9.58072530 [kJ/mol]
      Disp20                       -4.05203355 [mEh]      -2.54268944 [kcal/mol]     -10.63861263 [kJ/mol]
      Exch-Disp20                   0.40292800 [mEh]       0.25284114 [kcal/mol]       1.05788732 [kJ/mol]
      Disp20 (SS)                  -2.02601678 [mEh]      -1.27134472 [kcal/mol]      -5.31930631 [kJ/mol]
      Disp20 (OS)                  -2.02601678 [mEh]      -1.27134472 [kcal/mol]      -5.31930631 [kJ/mol]
      Exch-Disp20 (SS)              0.26023446 [mEh]       0.16329959 [kcal/mol]       0.68324549 [kJ/mol]
      Exch-Disp20 (OS)              0.14269354 [mEh]       0.08954155 [kcal/mol]       0.37464183 [kJ/mol]

  Total HF                          2.25909514 [mEh]       1.41760360 [kcal/mol]       5.93125348 [kJ/mol]
  Total SAPT0                      -1.39001041 [mEh]      -0.87224470 [kcal/mol]      -3.64947183 [kJ/mol]

  Special recipe for scaled SAPT0 (see Manual):
    Electrostatics sSAPT0          -0.14364995 [mEh]      -0.09014170 [kcal/mol]      -0.37715288 [kJ/mol]
    Exchange sSAPT0                 2.70109734 [mEh]       1.69496417 [kcal/mol]       7.09173008 [kJ/mol]
    Induction sSAPT0               -0.29029652 [mEh]      -0.18216381 [kcal/mol]      -0.76217340 [kJ/mol]
    Dispersion sSAPT0              -3.64607758 [mEh]      -2.28794823 [kcal/mol]      -9.57277538 [kJ/mol]
  Total sSAPT0                     -1.37892671 [mEh]      -0.86528957 [kcal/mol]      -3.62037158 [kJ/mol]
  --------------------------------------------------------------------------------------------------------

*** tstop() called on ds1 at Mon Oct  4 15:48:21 2021
Module time:
	user time   =      52.11 seconds =       0.87 minutes
	system time =       4.88 seconds =       0.08 minutes
	total time  =         11 seconds =       0.18 minutes
Total time:
	user time   =     136.00 seconds =       2.27 minutes
	system time =       6.46 seconds =       0.11 minutes
	total time  =         27 seconds =       0.45 minutes


Warning! sapt0 does not have an associated derived wavefunction.The returned wavefunction is the dimer SCF wavefunction.


    Psi4 stopped on: Monday, 04 October 2021 03:48PM
    Psi4 wall time for execution: 0:00:27.97

*** Psi4 exiting successfully. Buy a developer a beer!
