
    -----------------------------------------------------------------------
          Psi4: An Open-Source Ab Initio Electronic Structure Package
                               Psi4 1.4rc3 

                         Git: Rev {HEAD} 080dba6 


    D. G. A. Smith, L. A. Burns, A. C. Simmonett, R. M. Parrish,
    M. C. Schieber, R. Galvelis, P. Kraus, H. Kruse, R. Di Remigio,
    A. Alenaizan, A. M. James, S. Lehtola, J. P. Misiewicz, M. Scheurer,
    R. A. Shaw, J. B. Schriber, Y. Xie, Z. L. Glick, D. A. Sirianni,
    J. S. O'Brien, J. M. Waldrop, A. Kumar, E. G. Hohenstein,
    B. P. Pritchard, B. R. Brooks, H. F. Schaefer III, A. Yu. Sokolov,
    K. Patkowski, A. E. DePrince III, U. Bozkaya, R. A. King,
    F. A. Evangelista, J. M. Turney, T. D. Crawford, C. D. Sherrill,
    J. Chem. Phys. 152(18) 184108 (2020). https://doi.org/10.1063/5.0006002

                            Additional Code Authors
    E. T. Seidl, C. L. Janssen, E. F. Valeev, M. L. Leininger,
    J. F. Gonthier, R. M. Richard, H. R. McAlexander, M. Saitow, X. Wang,
    P. Verma, and M. H. Lechner

             Previous Authors, Complete List of Code Contributors,
                       and Citations for Specific Modules
    https://github.com/psi4/psi4/blob/master/codemeta.json
    https://github.com/psi4/psi4/graphs/contributors
    http://psicode.org/psi4manual/master/introduction.html#citing-psifour

    -----------------------------------------------------------------------


    Psi4 started on: Monday, 04 October 2021 02:45PM

    Process ID: 11207
    Host:       ds1
    PSIDATADIR: /theoryfs2/ds/csargent/miniconda3/envs/cle/share/psi4
    Memory:     500.0 MiB
    Threads:    6
    
  ==> Input File <==

--------------------------------------------------------------------------
# PSI4 file produced by CrystaLattE

# Generated from:               pyrazole.xyz
# Psithon input for N-mer:      2mer-0+257
# Number of atoms per monomer:  [9, 9]
# Number of replicas:           1
# COM priority:                 2.951201317404e-05
# Minimum COM separations:      17.124 
# Separation priority:          4.917693607763e-05
# Minimum monomer separations:  14.444 
# Cutoff priority:              1.801697831851e-06
# Nuclear repulsion energy:     373.29503910407163

memory 7 GB

molecule Dimer_0_257 {
  N            6.27981210      -4.25303372       0.19313865 
  N            6.06870777      -2.28125697       1.80544317 
  H            3.66871156      -5.64628941      -1.96684001 
  H            0.69034521      -2.37545694      -0.42864236 
  H            3.35917442       0.17650601       3.09265017 
  H            7.35266782      -1.99461311       2.90680702 
  C            3.77952586      -1.21508453       1.76858172 
  C            2.38242998      -2.55505538       0.04607681 
  C            4.01771468      -4.38410490      -0.88761863 
--
  N            2.79813836       2.40090997      33.58564583 
  N            2.91700062       4.43881700      32.04847211 
  H            5.47130109       0.00000000      34.30367619 
  H            8.36593765       2.44253874      31.54853868 
  H            5.42951358       6.15558776      29.64390237 
  H            1.45459240       5.24879406      31.66270679 
  C            5.19983702       4.76899267      31.01942327 
  C            6.68282945       2.83932046      31.90934573 
  C            5.12152412       1.45415264      33.50104368 
units = au
no_com
no_reorient
}

set {
  e_convergence 10
  d_convergence 10
  scf_type df
  mp2_type df
  cc_type df
  freeze_core true
}

energy('sapt0/aug-cc-pvdz')

--------------------------------------------------------------------------

  Memory set to   6.519 GiB by Python driver.

Scratch directory: /scratch/csargent/psi4.7158.66302/

Scratch directory: /scratch/csargent/psi4.7158.66302/

  //>>>>>>>>>>>>>>>>>>>>>>>>>>>>>>>>>>>//
  //              Dimer HF             //
  //<<<<<<<<<<<<<<<<<<<<<<<<<<<<<<<<<<<//


*** tstart() called on ds1
*** at Mon Oct  4 14:45:23 2021

   => Loading Basis Set <=

    Name: AUG-CC-PVDZ
    Role: ORBITAL
    Keyword: BASIS
    atoms 1-2, 10-11 entry N          line   218 file /theoryfs2/ds/csargent/miniconda3/envs/cle/share/psi4/basis/aug-cc-pvdz.gbs 
    atoms 3-6, 12-15 entry H          line    40 file /theoryfs2/ds/csargent/miniconda3/envs/cle/share/psi4/basis/aug-cc-pvdz.gbs 
    atoms 7-9, 16-18 entry C          line   182 file /theoryfs2/ds/csargent/miniconda3/envs/cle/share/psi4/basis/aug-cc-pvdz.gbs 


         ---------------------------------------------------------
                                   SCF
               by Justin Turney, Rob Parrish, Andy Simmonett
                          and Daniel G. A. Smith
                              RHF Reference
                        6 Threads,   6675 MiB Core
         ---------------------------------------------------------

  ==> Geometry <==

    Molecular point group: c1
    Full point group: C1

    Geometry (in Bohr), charge = 0, multiplicity = 1:

       Center              X                  Y                   Z               Mass       
    ------------   -----------------  -----------------  -----------------  -----------------
         N            6.279812100000    -4.253033720000     0.193138650000    14.003074004430
         N            6.068707770000    -2.281256970000     1.805443170000    14.003074004430
         H            3.668711560000    -5.646289410000    -1.966840010000     1.007825032230
         H            0.690345210000    -2.375456940000    -0.428642360000     1.007825032230
         H            3.359174420000     0.176506010000     3.092650170000     1.007825032230
         H            7.352667820000    -1.994613110000     2.906807020000     1.007825032230
         C            3.779525860000    -1.215084530000     1.768581720000    12.000000000000
         C            2.382429980000    -2.555055380000     0.046076810000    12.000000000000
         C            4.017714680000    -4.384104900000    -0.887618630000    12.000000000000
         N            2.798138360000     2.400909970000    33.585645830000    14.003074004430
         N            2.917000620000     4.438817000000    32.048472110000    14.003074004430
         H            5.471301090000     0.000000000000    34.303676190000     1.007825032230
         H            8.365937650000     2.442538740000    31.548538680000     1.007825032230
         H            5.429513580000     6.155587760000    29.643902370000     1.007825032230
         H            1.454592400000     5.248794060000    31.662706790000     1.007825032230
         C            5.199837020000     4.768992670000    31.019423270000    12.000000000000
         C            6.682829450000     2.839320460000    31.909345730000    12.000000000000
         C            5.121524120000     1.454152640000    33.501043680000    12.000000000000

  Running in c1 symmetry.

  Rotational constants: A =      0.02381  B =      0.00081  C =      0.00079 [cm^-1]
  Rotational constants: A =    713.93561  B =     24.41326  C =     23.73352 [MHz]
  Nuclear repulsion =  373.295039266612491

  Charge       = 0
  Multiplicity = 1
  Electrons    = 72
  Nalpha       = 36
  Nbeta        = 36

  ==> Algorithm <==

  SCF Algorithm Type is DF.
  DIIS enabled.
  MOM disabled.
  Fractional occupation disabled.
  Guess Type is SAD.
  Energy threshold   = 1.00e-10
  Density threshold  = 1.00e-10
  Integral threshold = 1.00e-12

  ==> Primary Basis <==

  Basis Set: AUG-CC-PVDZ
    Blend: AUG-CC-PVDZ
    Number of shells: 130
    Number of basis functions: 302
    Number of Cartesian functions: 322
    Spherical Harmonics?: true
    Max angular momentum: 2

   => Loading Basis Set <=

    Name: (AUG-CC-PVDZ AUX)
    Role: JKFIT
    Keyword: DF_BASIS_SCF
    atoms 1-2, 10-11 entry N          line   212 file /theoryfs2/ds/csargent/miniconda3/envs/cle/share/psi4/basis/aug-cc-pvdz-jkfit.gbs 
    atoms 3-6, 12-15 entry H          line    70 file /theoryfs2/ds/csargent/miniconda3/envs/cle/share/psi4/basis/aug-cc-pvdz-jkfit.gbs 
    atoms 7-9, 16-18 entry C          line   154 file /theoryfs2/ds/csargent/miniconda3/envs/cle/share/psi4/basis/aug-cc-pvdz-jkfit.gbs 

  ==> Integral Setup <==

  ==> DiskDFJK: Density-Fitted J/K Matrices <==

    J tasked:                  Yes
    K tasked:                  Yes
    wK tasked:                  No
    OpenMP threads:              6
    Integrals threads:           6
    Memory [MiB]:             5006
    Algorithm:                Core
    Integral Cache:           SAVE
    Schwarz Cutoff:          1E-12
    Fitting Condition:       1E-10

   => Auxiliary Basis Set <=

  Basis Set: (AUG-CC-PVDZ AUX)
    Blend: AUG-CC-PVDZ-JKFIT
    Number of shells: 376
    Number of basis functions: 1116
    Number of Cartesian functions: 1290
    Spherical Harmonics?: true
    Max angular momentum: 3

  Minimum eigenvalue in the overlap matrix is 3.0324448495E-05.
  Reciprocal condition number of the overlap matrix is 2.4867182088E-06.
    Using symmetric orthogonalization.

  ==> Pre-Iterations <==

  SCF Guess: Superposition of Atomic Densities via on-the-fly atomic UHF (no occupation information).

   -------------------------
    Irrep   Nso     Nmo    
   -------------------------
     A        302     302 
   -------------------------
    Total     302     302
   -------------------------

  ==> Iterations <==

                           Total Energy        Delta E     RMS |[F,P]|

   @DF-RHF iter SAD:  -449.44445657960375   -4.49444e+02   0.00000e+00 
   @DF-RHF iter   1:  -449.27095780715695    1.73499e-01   2.12833e-03 DIIS
   @DF-RHF iter   2:  -449.47970963457965   -2.08752e-01   9.74082e-04 DIIS
   @DF-RHF iter   3:  -449.52156766500298   -4.18580e-02   2.10244e-04 DIIS
   @DF-RHF iter   4:  -449.52433799080512   -2.77033e-03   8.55925e-05 DIIS
   @DF-RHF iter   5:  -449.52469471464701   -3.56724e-04   1.69380e-05 DIIS
   @DF-RHF iter   6:  -449.52472860226663   -3.38876e-05   7.01578e-06 DIIS
   @DF-RHF iter   7:  -449.52473651412186   -7.91186e-06   3.06782e-06 DIIS
   @DF-RHF iter   8:  -449.52473802214371   -1.50802e-06   1.43639e-06 DIIS
   @DF-RHF iter   9:  -449.52473835419505   -3.32051e-07   3.99609e-07 DIIS
   @DF-RHF iter  10:  -449.52473837167338   -1.74783e-08   1.21381e-07 DIIS
   @DF-RHF iter  11:  -449.52473837305439   -1.38101e-09   2.82674e-08 DIIS
   @DF-RHF iter  12:  -449.52473837314659   -9.22000e-11   8.22282e-09 DIIS
   @DF-RHF iter  13:  -449.52473837315580   -9.20863e-12   4.01345e-09 DIIS
   @DF-RHF iter  14:  -449.52473837315716   -1.36424e-12   1.38598e-09 DIIS
   @DF-RHF iter  15:  -449.52473837315750   -3.41061e-13   5.89412e-10 DIIS
   @DF-RHF iter  16:  -449.52473837315802   -5.11591e-13   1.79006e-10 DIIS
   @DF-RHF iter  17:  -449.52473837315790    1.13687e-13   6.40586e-11 DIIS
  Energy and wave function converged.


  ==> Post-Iterations <==

    Orbital Energies [Eh]
    ---------------------

    Doubly Occupied:                                                      

       1A    -15.636980     2A    -15.636685     3A    -15.593019  
       4A    -15.592756     5A    -11.280668     6A    -11.280363  
       7A    -11.238472     8A    -11.238214     9A    -11.210635  
      10A    -11.210344    11A     -1.387742    12A     -1.387377  
      13A     -1.122629    14A     -1.122353    15A     -1.067676  
      16A     -1.067353    17A     -0.873492    18A     -0.873217  
      19A     -0.837773    20A     -0.837506    21A     -0.758040  
      22A     -0.757764    23A     -0.646479    24A     -0.646194  
      25A     -0.621565    26A     -0.621279    27A     -0.609919  
      28A     -0.609596    29A     -0.584659    30A     -0.584381  
      31A     -0.462132    32A     -0.461842    33A     -0.371441  
      34A     -0.371162    35A     -0.346804    36A     -0.346501  

    Virtual:                                                              

      37A      0.029797    38A      0.030119    39A      0.041702  
      40A      0.041980    41A      0.048414    42A      0.048685  
      43A      0.062795    44A      0.063053    45A      0.100144  
      46A      0.100477    47A      0.103304    48A      0.103574  
      49A      0.116523    50A      0.116807    51A      0.125526  
      52A      0.125817    53A      0.132236    54A      0.132571  
      55A      0.137682    56A      0.137990    57A      0.140681  
      58A      0.141046    59A      0.156120    60A      0.156441  
      61A      0.163867    62A      0.164165    63A      0.170335  
      64A      0.170614    65A      0.177707    66A      0.177970  
      67A      0.195264    68A      0.195521    69A      0.204053  
      70A      0.204339    71A      0.205451    72A      0.205710  
      73A      0.239523    74A      0.239819    75A      0.242877  
      76A      0.243165    77A      0.244283    78A      0.244546  
      79A      0.270441    80A      0.270709    81A      0.278283  
      82A      0.278557    83A      0.300401    84A      0.300638  
      85A      0.324359    86A      0.324675    87A      0.351577  
      88A      0.351866    89A      0.354631    90A      0.354932  
      91A      0.374118    92A      0.374432    93A      0.395230  
      94A      0.395576    95A      0.401983    96A      0.402262  
      97A      0.414269    98A      0.414569    99A      0.431392  
     100A      0.431665   101A      0.442705   102A      0.442967  
     103A      0.452688   104A      0.452941   105A      0.459068  
     106A      0.459365   107A      0.477883   108A      0.478179  
     109A      0.497821   110A      0.498105   111A      0.507975  
     112A      0.508248   113A      0.521170   114A      0.521427  
     115A      0.540821   116A      0.541123   117A      0.573673  
     118A      0.573957   119A      0.585558   120A      0.585861  
     121A      0.589791   122A      0.590071   123A      0.601662  
     124A      0.601939   125A      0.620233   126A      0.620498  
     127A      0.645363   128A      0.645655   129A      0.654544  
     130A      0.654838   131A      0.675423   132A      0.675714  
     133A      0.697308   134A      0.697590   135A      0.699640  
     136A      0.699936   137A      0.720904   138A      0.721202  
     139A      0.724355   140A      0.724647   141A      0.746970  
     142A      0.747255   143A      0.757913   144A      0.758147  
     145A      0.772572   146A      0.772882   147A      0.780726  
     148A      0.781025   149A      0.827806   150A      0.828072  
     151A      0.837483   152A      0.837764   153A      0.847632  
     154A      0.847939   155A      0.880669   156A      0.880948  
     157A      0.887994   158A      0.888299   159A      0.906217  
     160A      0.906506   161A      0.924061   162A      0.924355  
     163A      0.941865   164A      0.942138   165A      0.977477  
     166A      0.977792   167A      0.984112   168A      0.984400  
     169A      1.010467   170A      1.010722   171A      1.045899  
     172A      1.046151   173A      1.065755   174A      1.066043  
     175A      1.100100   176A      1.100380   177A      1.127371  
     178A      1.127618   179A      1.133407   180A      1.133743  
     181A      1.149483   182A      1.149782   183A      1.174442  
     184A      1.174725   185A      1.219813   186A      1.220102  
     187A      1.268835   188A      1.269107   189A      1.302666  
     190A      1.302896   191A      1.310694   192A      1.310946  
     193A      1.365078   194A      1.365364   195A      1.400304  
     196A      1.400597   197A      1.473976   198A      1.474237  
     199A      1.511272   200A      1.511571   201A      1.525394  
     202A      1.525677   203A      1.560243   204A      1.560543  
     205A      1.590125   206A      1.590416   207A      1.607936  
     208A      1.608222   209A      1.636688   210A      1.636994  
     211A      1.668747   212A      1.669023   213A      1.702878  
     214A      1.703173   215A      1.723215   216A      1.723500  
     217A      1.748516   218A      1.748778   219A      1.763619  
     220A      1.763918   221A      1.804290   222A      1.804602  
     223A      1.874822   224A      1.875162   225A      1.931666  
     226A      1.931939   227A      1.942814   228A      1.943109  
     229A      1.987414   230A      1.987630   231A      2.020718  
     232A      2.020997   233A      2.056919   234A      2.057159  
     235A      2.088055   236A      2.088372   237A      2.143966  
     238A      2.144235   239A      2.189245   240A      2.189543  
     241A      2.200093   242A      2.200383   243A      2.229709  
     244A      2.230000   245A      2.275108   246A      2.275389  
     247A      2.306889   248A      2.307180   249A      2.359910  
     250A      2.360270   251A      2.388378   252A      2.388674  
     253A      2.392998   254A      2.393340   255A      2.434459  
     256A      2.434789   257A      2.464191   258A      2.464496  
     259A      2.531047   260A      2.531348   261A      2.569458  
     262A      2.569783   263A      2.584066   264A      2.584245  
     265A      2.642211   266A      2.642499   267A      2.732249  
     268A      2.732554   269A      2.826080   270A      2.826394  
     271A      2.833976   272A      2.834304   273A      2.900801  
     274A      2.901130   275A      2.917813   276A      2.918132  
     277A      2.998451   278A      2.998703   279A      3.054562  
     280A      3.054862   281A      3.091710   282A      3.091912  
     283A      3.121956   284A      3.122278   285A      3.188291  
     286A      3.188494   287A      3.221292   288A      3.221558  
     289A      3.297191   290A      3.297423   291A      3.379462  
     292A      3.379774   293A      3.520027   294A      3.520274  
     295A      3.685561   296A      3.686116   297A      3.888510  
     298A      3.888868   299A      4.208585   300A      4.208983  
     301A      4.462291   302A      4.462786  

    Final Occupation by Irrep:
              A 
    DOCC [    36 ]

  @DF-RHF Final Energy:  -449.52473837315790

   => Energetics <=

    Nuclear Repulsion Energy =            373.2950392666124912
    One-Electron Energy =               -1347.0495312083439785
    Two-Electron Energy =                 524.2297535685735284
    Total Energy =                       -449.5247383731579021

Computation Completed


Properties will be evaluated at   0.000000,   0.000000,   0.000000 [a0]

Properties computed using the SCF density matrix

  Nuclear Dipole Moment: [e a0]
     X:   325.3410      Y:    11.5944      Z:  1188.3328

  Electronic Dipole Moment: [e a0]
     X:  -325.4531      Y:   -10.4011      Z: -1188.4552

  Dipole Moment: [e a0]
     X:    -0.1120      Y:     1.1934      Z:    -0.1224     Total:     1.2048

  Dipole Moment: [D]
     X:    -0.2848      Y:     3.0332      Z:    -0.3112     Total:     3.0624


*** tstop() called on ds1 at Mon Oct  4 14:45:28 2021
Module time:
	user time   =      22.60 seconds =       0.38 minutes
	system time =       0.56 seconds =       0.01 minutes
	total time  =          5 seconds =       0.08 minutes
Total time:
	user time   =      22.60 seconds =       0.38 minutes
	system time =       0.56 seconds =       0.01 minutes
	total time  =          5 seconds =       0.08 minutes

  //>>>>>>>>>>>>>>>>>>>>>>>>>>>>>>>>>>>//
  //            Monomer A HF           //
  //<<<<<<<<<<<<<<<<<<<<<<<<<<<<<<<<<<<//


*** tstart() called on ds1
*** at Mon Oct  4 14:45:28 2021

   => Loading Basis Set <=

    Name: AUG-CC-PVDZ
    Role: ORBITAL
    Keyword: BASIS
    atoms 1-2, 10-11 entry N          line   218 file /theoryfs2/ds/csargent/miniconda3/envs/cle/share/psi4/basis/aug-cc-pvdz.gbs 
    atoms 3-6, 12-15 entry H          line    40 file /theoryfs2/ds/csargent/miniconda3/envs/cle/share/psi4/basis/aug-cc-pvdz.gbs 
    atoms 7-9, 16-18 entry C          line   182 file /theoryfs2/ds/csargent/miniconda3/envs/cle/share/psi4/basis/aug-cc-pvdz.gbs 


         ---------------------------------------------------------
                                   SCF
               by Justin Turney, Rob Parrish, Andy Simmonett
                          and Daniel G. A. Smith
                              RHF Reference
                        6 Threads,   6675 MiB Core
         ---------------------------------------------------------

  ==> Geometry <==

    Molecular point group: c1
    Full point group: C1

    Geometry (in Bohr), charge = 0, multiplicity = 1:

       Center              X                  Y                   Z               Mass       
    ------------   -----------------  -----------------  -----------------  -----------------
         N            6.279812100000    -4.253033720000     0.193138650000    14.003074004430
         N            6.068707770000    -2.281256970000     1.805443170000    14.003074004430
         H            3.668711560000    -5.646289410000    -1.966840010000     1.007825032230
         H            0.690345210000    -2.375456940000    -0.428642360000     1.007825032230
         H            3.359174420000     0.176506010000     3.092650170000     1.007825032230
         H            7.352667820000    -1.994613110000     2.906807020000     1.007825032230
         C            3.779525860000    -1.215084530000     1.768581720000    12.000000000000
         C            2.382429980000    -2.555055380000     0.046076810000    12.000000000000
         C            4.017714680000    -4.384104900000    -0.887618630000    12.000000000000
      Gh(N)           2.798138360000     2.400909970000    33.585645830000    14.003074004430
      Gh(N)           2.917000620000     4.438817000000    32.048472110000    14.003074004430
      Gh(H)           5.471301090000     0.000000000000    34.303676190000     1.007825032230
      Gh(H)           8.365937650000     2.442538740000    31.548538680000     1.007825032230
      Gh(H)           5.429513580000     6.155587760000    29.643902370000     1.007825032230
      Gh(H)           1.454592400000     5.248794060000    31.662706790000     1.007825032230
      Gh(C)           5.199837020000     4.768992670000    31.019423270000    12.000000000000
      Gh(C)           6.682829450000     2.839320460000    31.909345730000    12.000000000000
      Gh(C)           5.121524120000     1.454152640000    33.501043680000    12.000000000000

  Running in c1 symmetry.

  Rotational constants: A =      0.02381  B =      0.00081  C =      0.00079 [cm^-1]
  Rotational constants: A =    713.93561  B =     24.41326  C =     23.73352 [MHz]
  Nuclear repulsion =  166.624056450327203

  Charge       = 0
  Multiplicity = 1
  Electrons    = 36
  Nalpha       = 18
  Nbeta        = 18

  ==> Algorithm <==

  SCF Algorithm Type is DF.
  DIIS enabled.
  MOM disabled.
  Fractional occupation disabled.
  Guess Type is SAD.
  Energy threshold   = 1.00e-10
  Density threshold  = 1.00e-10
  Integral threshold = 1.00e-12

  ==> Primary Basis <==

  Basis Set: AUG-CC-PVDZ
    Blend: AUG-CC-PVDZ
    Number of shells: 130
    Number of basis functions: 302
    Number of Cartesian functions: 322
    Spherical Harmonics?: true
    Max angular momentum: 2

   => Loading Basis Set <=

    Name: (AUG-CC-PVDZ AUX)
    Role: JKFIT
    Keyword: DF_BASIS_SCF
    atoms 1-2, 10-11 entry N          line   212 file /theoryfs2/ds/csargent/miniconda3/envs/cle/share/psi4/basis/aug-cc-pvdz-jkfit.gbs 
    atoms 3-6, 12-15 entry H          line    70 file /theoryfs2/ds/csargent/miniconda3/envs/cle/share/psi4/basis/aug-cc-pvdz-jkfit.gbs 
    atoms 7-9, 16-18 entry C          line   154 file /theoryfs2/ds/csargent/miniconda3/envs/cle/share/psi4/basis/aug-cc-pvdz-jkfit.gbs 

  ==> Integral Setup <==

  ==> DiskDFJK: Density-Fitted J/K Matrices <==

    J tasked:                  Yes
    K tasked:                  Yes
    wK tasked:                  No
    OpenMP threads:              6
    Integrals threads:           6
    Memory [MiB]:             5006
    Algorithm:                Core
    Integral Cache:           LOAD
    Schwarz Cutoff:          1E-12
    Fitting Condition:       1E-10

   => Auxiliary Basis Set <=

  Basis Set: (AUG-CC-PVDZ AUX)
    Blend: AUG-CC-PVDZ-JKFIT
    Number of shells: 376
    Number of basis functions: 1116
    Number of Cartesian functions: 1290
    Spherical Harmonics?: true
    Max angular momentum: 3

  Minimum eigenvalue in the overlap matrix is 3.0324448495E-05.
  Reciprocal condition number of the overlap matrix is 2.4867182088E-06.
    Using symmetric orthogonalization.

  ==> Pre-Iterations <==

  SCF Guess: Superposition of Atomic Densities via on-the-fly atomic UHF (no occupation information).

   -------------------------
    Irrep   Nso     Nmo    
   -------------------------
     A        302     302 
   -------------------------
    Total     302     302
   -------------------------

  ==> Iterations <==

                           Total Energy        Delta E     RMS |[F,P]|

   @DF-RHF iter SAD:  -224.72194801192697   -2.24722e+02   0.00000e+00 
   @DF-RHF iter   1:  -224.63549169896339    8.64563e-02   1.50472e-03 DIIS
   @DF-RHF iter   2:  -224.73984613171112   -1.04354e-01   6.88462e-04 DIIS
   @DF-RHF iter   3:  -224.76075487059097   -2.09087e-02   1.48626e-04 DIIS
   @DF-RHF iter   4:  -224.76213931436737   -1.38444e-03   6.05310e-05 DIIS
   @DF-RHF iter   5:  -224.76231766912596   -1.78355e-04   1.19893e-05 DIIS
   @DF-RHF iter   6:  -224.76233462660011   -1.69575e-05   4.96772e-06 DIIS
   @DF-RHF iter   7:  -224.76233858263802   -3.95604e-06   2.18806e-06 DIIS
   @DF-RHF iter   8:  -224.76233934338026   -7.60742e-07   1.01700e-06 DIIS
   @DF-RHF iter   9:  -224.76233951102233   -1.67642e-07   2.83302e-07 DIIS
   @DF-RHF iter  10:  -224.76233951984312   -8.82079e-09   8.55547e-08 DIIS
   @DF-RHF iter  11:  -224.76233952053300   -6.89880e-10   1.99714e-08 DIIS
   @DF-RHF iter  12:  -224.76233952057896   -4.59579e-11   5.81092e-09 DIIS
   @DF-RHF iter  13:  -224.76233952058325   -4.29168e-12   2.83097e-09 DIIS
   @DF-RHF iter  14:  -224.76233952058377   -5.11591e-13   9.75191e-10 DIIS
   @DF-RHF iter  15:  -224.76233952058450   -7.38964e-13   4.15547e-10 DIIS
   @DF-RHF iter  16:  -224.76233952058428    2.27374e-13   1.25997e-10 DIIS
   @DF-RHF iter  17:  -224.76233952058433   -5.68434e-14   4.47776e-11 DIIS
  Energy and wave function converged.


  ==> Post-Iterations <==

    Orbital Energies [Eh]
    ---------------------

    Doubly Occupied:                                                      

       1A    -15.636223     2A    -15.592313     3A    -11.279894  
       4A    -11.237784     5A    -11.209891     6A     -1.386922  
       7A     -1.121901     8A     -1.066898     9A     -0.872768  
      10A     -0.837061    11A     -0.757292    12A     -0.645746  
      13A     -0.620834    14A     -0.609140    15A     -0.583920  
      16A     -0.461404    17A     -0.370721    18A     -0.346048  

    Virtual:                                                              

      19A      0.021949    20A      0.030763    21A      0.039273  
      22A      0.042368    23A      0.043441    24A      0.049159  
      25A      0.063518    26A      0.065119    27A      0.083247  
      28A      0.090094    29A      0.098244    30A      0.100998  
      31A      0.104029    32A      0.117178    33A      0.117646  
      34A      0.125128    35A      0.126270    36A      0.127471  
      37A      0.132661    38A      0.133079    39A      0.133382  
      40A      0.138403    41A      0.141491    42A      0.156889  
      43A      0.157886    44A      0.164592    45A      0.165218  
      46A      0.171075    47A      0.178399    48A      0.178494  
      49A      0.194795    50A      0.196042    51A      0.200772  
      52A      0.204793    53A      0.206162    54A      0.222266  
      55A      0.224425    56A      0.227605    57A      0.234890  
      58A      0.240236    59A      0.243626    60A      0.244965  
      61A      0.263458    62A      0.270268    63A      0.271127  
      64A      0.279081    65A      0.301010    66A      0.321290  
      67A      0.325148    68A      0.339343    69A      0.352358  
      70A      0.355357    71A      0.365843    72A      0.372222  
      73A      0.374907    74A      0.383018    75A      0.396061  
      76A      0.402741    77A      0.414998    78A      0.426756  
      79A      0.431340    80A      0.432132    81A      0.440460  
      82A      0.441608    83A      0.443385    84A      0.453393  
      85A      0.455298    86A      0.456736    87A      0.459816  
      88A      0.461181    89A      0.478655    90A      0.498543  
      91A      0.508690    92A      0.508994    93A      0.518706  
      94A      0.521917    95A      0.532391    96A      0.537377  
      97A      0.541560    98A      0.558638    99A      0.568087  
     100A      0.571148   101A      0.574432   102A      0.586318  
     103A      0.590538   104A      0.594451   105A      0.602413  
     106A      0.612724   107A      0.620579   108A      0.620953  
     109A      0.632845   110A      0.646110   111A      0.655295  
     112A      0.676162   113A      0.690118   114A      0.698041  
     115A      0.700391   116A      0.707144   117A      0.718753  
     118A      0.721667   119A      0.725115   120A      0.734942  
     121A      0.744715   122A      0.747709   123A      0.758592  
     124A      0.773318   125A      0.781481   126A      0.789067  
     127A      0.797394   128A      0.813762   129A      0.820289  
     130A      0.828504   131A      0.838230   132A      0.848394  
     133A      0.851266   134A      0.854380   135A      0.870329  
     136A      0.880402   137A      0.881395   138A      0.888767  
     139A      0.895003   140A      0.906950   141A      0.915479  
     142A      0.924815   143A      0.942582   144A      0.951458  
     145A      0.978222   146A      0.984850   147A      0.996532  
     148A      1.011149   149A      1.023544   150A      1.029606  
     151A      1.046606   152A      1.050982   153A      1.066503  
     154A      1.070431   155A      1.080394   156A      1.100852  
     157A      1.107581   158A      1.128058   159A      1.134196  
     160A      1.150235   161A      1.158184   162A      1.165728  
     163A      1.175168   164A      1.184384   165A      1.220548  
     166A      1.221127   167A      1.236444   168A      1.267396  
     169A      1.269556   170A      1.293172   171A      1.303342  
     172A      1.311399   173A      1.314578   174A      1.340100  
     175A      1.365807   176A      1.381285   177A      1.401043  
     178A      1.434434   179A      1.444166   180A      1.474691  
     181A      1.492610   182A      1.506490   183A      1.512027  
     184A      1.526129   185A      1.560989   186A      1.590882  
     187A      1.608669   188A      1.637437   189A      1.669472  
     190A      1.676152   191A      1.688328   192A      1.703634  
     193A      1.723950   194A      1.749215   195A      1.764374  
     196A      1.805048   197A      1.875632   198A      1.932390  
     199A      1.943558   200A      1.988067   201A      2.021445  
     202A      2.040503   203A      2.057611   204A      2.088839  
     205A      2.108439   206A      2.134224   207A      2.144687  
     208A      2.167518   209A      2.190005   210A      2.200827  
     211A      2.216030   212A      2.230457   213A      2.233288  
     214A      2.261291   215A      2.275825   216A      2.277185  
     217A      2.288679   218A      2.307640   219A      2.335045  
     220A      2.360716   221A      2.380074   222A      2.389130  
     223A      2.393822   224A      2.393937   225A      2.435246  
     226A      2.443268   227A      2.464967   228A      2.477714  
     229A      2.499364   230A      2.513091   231A      2.531798  
     232A      2.548225   233A      2.570232   234A      2.584716  
     235A      2.630767   236A      2.642961   237A      2.666943  
     238A      2.702437   239A      2.718298   240A      2.733029  
     241A      2.826838   242A      2.827387   243A      2.834751  
     244A      2.869220   245A      2.889436   246A      2.901587  
     247A      2.918598   248A      2.944545   249A      2.999157  
     250A      3.027402   251A      3.055324   252A      3.089180  
     253A      3.092358   254A      3.122730   255A      3.139478  
     256A      3.181330   257A      3.188930   258A      3.222008  
     259A      3.253609   260A      3.288604   261A      3.297865  
     262A      3.355118   263A      3.380235   264A      3.395102  
     265A      3.422833   266A      3.447681   267A      3.486653  
     268A      3.496982   269A      3.520727   270A      3.633128  
     271A      3.666420   272A      3.686563   273A      3.735088  
     274A      3.769588   275A      3.850578   276A      3.889327  
     277A      3.963985   278A      4.035115   279A      4.094225  
     280A      4.209428   281A      4.243527   282A      4.447726  
     283A      4.463235   284A      4.657984   285A      4.707618  
     286A      4.749388   287A      4.810296   288A      4.994313  
     289A      5.076189   290A      5.240693   291A      5.530951  
     292A      5.668498   293A      5.826088   294A      6.106509  
     295A      6.317648   296A      6.707064   297A      6.966976  
     298A     18.110632   299A     18.647522   300A     19.373120  
     301A     25.244945   302A     25.704799  

    Final Occupation by Irrep:
              A 
    DOCC [    18 ]

  @DF-RHF Final Energy:  -224.76233952058433

   => Energetics <=

    Nuclear Repulsion Energy =            166.6240564503272026
    One-Electron Energy =                -633.4992733869195263
    Two-Electron Energy =                 242.1128774160079900
    Total Energy =                       -224.7623395205843337

Computation Completed


Properties will be evaluated at   0.000000,   0.000000,   0.000000 [a0]

Properties computed using the SCF density matrix

  Nuclear Dipole Moment: [e a0]
     X:   162.5886      Y:  -104.5054      Z:    23.1563

  Electronic Dipole Moment: [e a0]
     X:  -162.9913      Y:   105.1370      Z:   -22.5767

  Dipole Moment: [e a0]
     X:    -0.4027      Y:     0.6317      Z:     0.5796     Total:     0.9472

  Dipole Moment: [D]
     X:    -1.0235      Y:     1.6055      Z:     1.4733     Total:     2.4075


*** tstop() called on ds1 at Mon Oct  4 14:45:31 2021
Module time:
	user time   =      16.85 seconds =       0.28 minutes
	system time =       0.38 seconds =       0.01 minutes
	total time  =          3 seconds =       0.05 minutes
Total time:
	user time   =      39.63 seconds =       0.66 minutes
	system time =       0.95 seconds =       0.02 minutes
	total time  =          8 seconds =       0.13 minutes

  //>>>>>>>>>>>>>>>>>>>>>>>>>>>>>>>>>>>//
  //            Monomer B HF           //
  //<<<<<<<<<<<<<<<<<<<<<<<<<<<<<<<<<<<//


*** tstart() called on ds1
*** at Mon Oct  4 14:45:31 2021

   => Loading Basis Set <=

    Name: AUG-CC-PVDZ
    Role: ORBITAL
    Keyword: BASIS
    atoms 1-2, 10-11 entry N          line   218 file /theoryfs2/ds/csargent/miniconda3/envs/cle/share/psi4/basis/aug-cc-pvdz.gbs 
    atoms 3-6, 12-15 entry H          line    40 file /theoryfs2/ds/csargent/miniconda3/envs/cle/share/psi4/basis/aug-cc-pvdz.gbs 
    atoms 7-9, 16-18 entry C          line   182 file /theoryfs2/ds/csargent/miniconda3/envs/cle/share/psi4/basis/aug-cc-pvdz.gbs 


         ---------------------------------------------------------
                                   SCF
               by Justin Turney, Rob Parrish, Andy Simmonett
                          and Daniel G. A. Smith
                              RHF Reference
                        6 Threads,   6675 MiB Core
         ---------------------------------------------------------

  ==> Geometry <==

    Molecular point group: c1
    Full point group: C1

    Geometry (in Bohr), charge = 0, multiplicity = 1:

       Center              X                  Y                   Z               Mass       
    ------------   -----------------  -----------------  -----------------  -----------------
      Gh(N)           6.279812100000    -4.253033720000     0.193138650000    14.003074004430
      Gh(N)           6.068707770000    -2.281256970000     1.805443170000    14.003074004430
      Gh(H)           3.668711560000    -5.646289410000    -1.966840010000     1.007825032230
      Gh(H)           0.690345210000    -2.375456940000    -0.428642360000     1.007825032230
      Gh(H)           3.359174420000     0.176506010000     3.092650170000     1.007825032230
      Gh(H)           7.352667820000    -1.994613110000     2.906807020000     1.007825032230
      Gh(C)           3.779525860000    -1.215084530000     1.768581720000    12.000000000000
      Gh(C)           2.382429980000    -2.555055380000     0.046076810000    12.000000000000
      Gh(C)           4.017714680000    -4.384104900000    -0.887618630000    12.000000000000
         N            2.798138360000     2.400909970000    33.585645830000    14.003074004430
         N            2.917000620000     4.438817000000    32.048472110000    14.003074004430
         H            5.471301090000     0.000000000000    34.303676190000     1.007825032230
         H            8.365937650000     2.442538740000    31.548538680000     1.007825032230
         H            5.429513580000     6.155587760000    29.643902370000     1.007825032230
         H            1.454592400000     5.248794060000    31.662706790000     1.007825032230
         C            5.199837020000     4.768992670000    31.019423270000    12.000000000000
         C            6.682829450000     2.839320460000    31.909345730000    12.000000000000
         C            5.121524120000     1.454152640000    33.501043680000    12.000000000000

  Running in c1 symmetry.

  Rotational constants: A =      0.02381  B =      0.00081  C =      0.00079 [cm^-1]
  Rotational constants: A =    713.93561  B =     24.41326  C =     23.73352 [MHz]
  Nuclear repulsion =  166.628602973949342

  Charge       = 0
  Multiplicity = 1
  Electrons    = 36
  Nalpha       = 18
  Nbeta        = 18

  ==> Algorithm <==

  SCF Algorithm Type is DF.
  DIIS enabled.
  MOM disabled.
  Fractional occupation disabled.
  Guess Type is SAD.
  Energy threshold   = 1.00e-10
  Density threshold  = 1.00e-10
  Integral threshold = 1.00e-12

  ==> Primary Basis <==

  Basis Set: AUG-CC-PVDZ
    Blend: AUG-CC-PVDZ
    Number of shells: 130
    Number of basis functions: 302
    Number of Cartesian functions: 322
    Spherical Harmonics?: true
    Max angular momentum: 2

   => Loading Basis Set <=

    Name: (AUG-CC-PVDZ AUX)
    Role: JKFIT
    Keyword: DF_BASIS_SCF
    atoms 1-2, 10-11 entry N          line   212 file /theoryfs2/ds/csargent/miniconda3/envs/cle/share/psi4/basis/aug-cc-pvdz-jkfit.gbs 
    atoms 3-6, 12-15 entry H          line    70 file /theoryfs2/ds/csargent/miniconda3/envs/cle/share/psi4/basis/aug-cc-pvdz-jkfit.gbs 
    atoms 7-9, 16-18 entry C          line   154 file /theoryfs2/ds/csargent/miniconda3/envs/cle/share/psi4/basis/aug-cc-pvdz-jkfit.gbs 

  ==> Integral Setup <==

  ==> DiskDFJK: Density-Fitted J/K Matrices <==

    J tasked:                  Yes
    K tasked:                  Yes
    wK tasked:                  No
    OpenMP threads:              6
    Integrals threads:           6
    Memory [MiB]:             5006
    Algorithm:                Core
    Integral Cache:           LOAD
    Schwarz Cutoff:          1E-12
    Fitting Condition:       1E-10

   => Auxiliary Basis Set <=

  Basis Set: (AUG-CC-PVDZ AUX)
    Blend: AUG-CC-PVDZ-JKFIT
    Number of shells: 376
    Number of basis functions: 1116
    Number of Cartesian functions: 1290
    Spherical Harmonics?: true
    Max angular momentum: 3

  Minimum eigenvalue in the overlap matrix is 3.0324448495E-05.
  Reciprocal condition number of the overlap matrix is 2.4867182088E-06.
    Using symmetric orthogonalization.

  ==> Pre-Iterations <==

  SCF Guess: Superposition of Atomic Densities via on-the-fly atomic UHF (no occupation information).

   -------------------------
    Irrep   Nso     Nmo    
   -------------------------
     A        302     302 
   -------------------------
    Total     302     302
   -------------------------

  ==> Iterations <==

                           Total Energy        Delta E     RMS |[F,P]|

   @DF-RHF iter SAD:  -224.72250856552205   -2.24723e+02   0.00000e+00 
   @DF-RHF iter   1:  -224.63556596162888    8.69426e-02   1.50490e-03 DIIS
   @DF-RHF iter   2:  -224.73993304995841   -1.04367e-01   6.88620e-04 DIIS
   @DF-RHF iter   3:  -224.76085080365368   -2.09178e-02   1.48614e-04 DIIS
   @DF-RHF iter   4:  -224.76223500229185   -1.38420e-03   6.05151e-05 DIIS
   @DF-RHF iter   5:  -224.76241324679049   -1.78244e-04   1.19848e-05 DIIS
   @DF-RHF iter   6:  -224.76243017993897   -1.69331e-05   4.96323e-06 DIIS
   @DF-RHF iter   7:  -224.76243412778231   -3.94784e-06   2.18627e-06 DIIS
   @DF-RHF iter   8:  -224.76243488732152   -7.59539e-07   1.01631e-06 DIIS
   @DF-RHF iter   9:  -224.76243505482563   -1.67504e-07   2.83280e-07 DIIS
   @DF-RHF iter  10:  -224.76243506364341   -8.81778e-09   8.55270e-08 DIIS
   @DF-RHF iter  11:  -224.76243506433315   -6.89738e-10   1.99678e-08 DIIS
   @DF-RHF iter  12:  -224.76243506437888   -4.57305e-11   5.80974e-09 DIIS
   @DF-RHF iter  13:  -224.76243506438331   -4.43379e-12   2.83582e-09 DIIS
   @DF-RHF iter  14:  -224.76243506438419   -8.81073e-13   9.79833e-10 DIIS
   @DF-RHF iter  15:  -224.76243506438431   -1.13687e-13   4.16538e-10 DIIS
   @DF-RHF iter  16:  -224.76243506438476   -4.54747e-13   1.25809e-10 DIIS
   @DF-RHF iter  17:  -224.76243506438428    4.83169e-13   4.47606e-11 DIIS
  Energy and wave function converged.


  ==> Post-Iterations <==

    Orbital Energies [Eh]
    ---------------------

    Doubly Occupied:                                                      

       1A    -15.636233     2A    -15.592291     3A    -11.279903  
       4A    -11.237759     5A    -11.209884     6A     -1.387001  
       7A     -1.121894     8A     -1.066928     9A     -0.872759  
      10A     -0.837039    11A     -0.757272    12A     -0.645745  
      13A     -0.620828    14A     -0.609177    15A     -0.583905  
      16A     -0.461413    17A     -0.370715    18A     -0.346055  

    Virtual:                                                              

      19A      0.022246    20A      0.030764    21A      0.039534  
      22A      0.042369    23A      0.043732    24A      0.049158  
      25A      0.063517    26A      0.065372    27A      0.083568  
      28A      0.090338    29A      0.098528    30A      0.101001  
      31A      0.104028    32A      0.117186    33A      0.117924  
      34A      0.125441    35A      0.126273    36A      0.127789  
      37A      0.132931    38A      0.133090    39A      0.133717  
      40A      0.138399    41A      0.141488    42A      0.156889  
      43A      0.158166    44A      0.164593    45A      0.165496  
      46A      0.171081    47A      0.178406    48A      0.178752  
      49A      0.195084    50A      0.196040    51A      0.201044  
      52A      0.204806    53A      0.206166    54A      0.222541  
      55A      0.224691    56A      0.227868    57A      0.235157  
      58A      0.240240    59A      0.243627    60A      0.244965  
      61A      0.263712    62A      0.270514    63A      0.271138  
      64A      0.279081    65A      0.301024    66A      0.321548  
      67A      0.325138    68A      0.339652    69A      0.352355  
      70A      0.355359    71A      0.366110    72A      0.372513  
      73A      0.374909    74A      0.383327    75A      0.396062  
      76A      0.402744    77A      0.415005    78A      0.427052  
      79A      0.431640    80A      0.432131    81A      0.440782  
      82A      0.441916    83A      0.443379    84A      0.453414  
      85A      0.455579    86A      0.457018    87A      0.459816  
      88A      0.461468    89A      0.478656    90A      0.498544  
      91A      0.508693    92A      0.509280    93A      0.518966  
      94A      0.521953    95A      0.532691    96A      0.537659  
      97A      0.541569    98A      0.558919    99A      0.568348  
     100A      0.571435   101A      0.574428   102A      0.586322  
     103A      0.590547   104A      0.594762   105A      0.602431  
     106A      0.613002   107A      0.620850   108A      0.620975  
     109A      0.633133   110A      0.646111   111A      0.655304  
     112A      0.676168   113A      0.690416   114A      0.698039  
     115A      0.700384   116A      0.707415   117A      0.719046  
     118A      0.721649   119A      0.725121   120A      0.735256  
     121A      0.745011   122A      0.747717   123A      0.758643  
     124A      0.773300   125A      0.781476   126A      0.789332  
     127A      0.797686   128A      0.814052   129A      0.820577  
     130A      0.828513   131A      0.838238   132A      0.848382  
     133A      0.851556   134A      0.854677   135A      0.870641  
     136A      0.880699   137A      0.881397   138A      0.888762  
     139A      0.895312   140A      0.906950   141A      0.915741  
     142A      0.924803   143A      0.942599   144A      0.951728  
     145A      0.978204   146A      0.984853   147A      0.996810  
     148A      1.011170   149A      1.023844   150A      1.029886  
     151A      1.046624   152A      1.051269   153A      1.066503  
     154A      1.070743   155A      1.080683   156A      1.100853  
     157A      1.107850   158A      1.128099   159A      1.134152  
     160A      1.150240   161A      1.158462   162A      1.165986  
     163A      1.175167   164A      1.184663   165A      1.220538  
     166A      1.221376   167A      1.236695   168A      1.267687  
     169A      1.269573   170A      1.293425   171A      1.303390  
     172A      1.311430   173A      1.314843   174A      1.340386  
     175A      1.365802   176A      1.381548   177A      1.401040  
     178A      1.434685   179A      1.444408   180A      1.474706  
     181A      1.492898   182A      1.506711   183A      1.512021  
     184A      1.526136   185A      1.560976   186A      1.590889  
     187A      1.608679   188A      1.637435   189A      1.669494  
     190A      1.676411   191A      1.688596   192A      1.703636  
     193A      1.723957   194A      1.749249   195A      1.764367  
     196A      1.805025   197A      1.875589   198A      1.932406  
     199A      1.943562   200A      1.988139   201A      2.021453  
     202A      2.040804   203A      2.057662   204A      2.088810  
     205A      2.108754   206A      2.134573   207A      2.144708  
     208A      2.167851   209A      2.189999   210A      2.200828  
     211A      2.216356   212A      2.230454   213A      2.233591  
     214A      2.261593   215A      2.275832   216A      2.277513  
     217A      2.288988   218A      2.307637   219A      2.335406  
     220A      2.360646   221A      2.380348   222A      2.389121  
     223A      2.393758   224A      2.394242   225A      2.435199  
     226A      2.443585   227A      2.464942   228A      2.478048  
     229A      2.499635   230A      2.513298   231A      2.531785  
     232A      2.548530   233A      2.570195   234A      2.584820  
     235A      2.631062   236A      2.642959   237A      2.667221  
     238A      2.702708   239A      2.718597   240A      2.733013  
     241A      2.826807   242A      2.827645   243A      2.834707  
     244A      2.869473   245A      2.889740   246A      2.901543  
     247A      2.918563   248A      2.944885   249A      2.999195  
     250A      3.027781   251A      3.055311   252A      3.089541  
     253A      3.092440   254A      3.122703   255A      3.139769  
     256A      3.181705   257A      3.189011   258A      3.222030  
     259A      3.253866   260A      3.288942   261A      3.297913  
     262A      3.355482   263A      3.380219   264A      3.395337  
     265A      3.423177   266A      3.448048   267A      3.486890  
     268A      3.497245   269A      3.520764   270A      3.633330  
     271A      3.666674   272A      3.686295   273A      3.735354  
     274A      3.769801   275A      3.850850   276A      3.889250  
     277A      3.964128   278A      4.035238   279A      4.094477  
     280A      4.209313   281A      4.243807   282A      4.448173  
     283A      4.463032   284A      4.658178   285A      4.707759  
     286A      4.749666   287A      4.810508   288A      4.994602  
     289A      5.076536   290A      5.241176   291A      5.530987  
     292A      5.668675   293A      5.826556   294A      6.106441  
     295A      6.318087   296A      6.708148   297A      6.967597  
     298A     18.110945   299A     18.647611   300A     19.373324  
     301A     25.245306   302A     25.704668  

    Final Occupation by Irrep:
              A 
    DOCC [    18 ]

  @DF-RHF Final Energy:  -224.76243506438428

   => Energetics <=

    Nuclear Repulsion Energy =            166.6286029739493415
    One-Electron Energy =                -633.5084737394892045
    Two-Electron Energy =                 242.1174357011555855
    Total Energy =                       -224.7624350643842774

Computation Completed


Properties will be evaluated at   0.000000,   0.000000,   0.000000 [a0]

Properties computed using the SCF density matrix

  Nuclear Dipole Moment: [e a0]
     X:   162.7525      Y:   116.0998      Z:  1165.1765

  Electronic Dipole Moment: [e a0]
     X:  -162.4615      Y:  -115.5358      Z: -1165.8796

  Dipole Moment: [e a0]
     X:     0.2909      Y:     0.5640      Z:    -0.7031     Total:     0.9472

  Dipole Moment: [D]
     X:     0.7394      Y:     1.4336      Z:    -1.7871     Total:     2.4074


*** tstop() called on ds1 at Mon Oct  4 14:45:35 2021
Module time:
	user time   =      16.33 seconds =       0.27 minutes
	system time =       0.35 seconds =       0.01 minutes
	total time  =          4 seconds =       0.07 minutes
Total time:
	user time   =      56.13 seconds =       0.94 minutes
	system time =       1.31 seconds =       0.02 minutes
	total time  =         12 seconds =       0.20 minutes
  Constructing Basis Sets for SAPT...

   => Loading Basis Set <=

    Name: (AUG-CC-PVDZ AUX)
    Role: RIFIT
    Keyword: DF_BASIS_SAPT
    atoms 1-2, 10-11 entry N          line   158 file /theoryfs2/ds/csargent/miniconda3/envs/cle/share/psi4/basis/aug-cc-pvdz-ri.gbs 
    atoms 3-6, 12-15 entry H          line    30 file /theoryfs2/ds/csargent/miniconda3/envs/cle/share/psi4/basis/aug-cc-pvdz-ri.gbs 
    atoms 7-9, 16-18 entry C          line   112 file /theoryfs2/ds/csargent/miniconda3/envs/cle/share/psi4/basis/aug-cc-pvdz-ri.gbs 


  //>>>>>>>>>>>>>>>>>>>>>>>>>>>>>>>>>>>//
  //               SAPT0               //
  //<<<<<<<<<<<<<<<<<<<<<<<<<<<<<<<<<<<//


*** tstart() called on ds1
*** at Mon Oct  4 14:45:35 2021

        SAPT0  
    Ed Hohenstein
     6 June 2009

      Orbital Information
  --------------------------
    NSO        =       302
    NMO        =       302
    NRI        =       904
    NOCC A     =        18
    NOCC B     =        18
    FOCC A     =         5
    FOCC B     =         5
    NVIR A     =       284
    NVIR B     =       284

    Elst10,r            =     0.000036254532 [Eh]
    Exch10              =     0.000000000000 [Eh]
    Exch10 (S^2)        =     0.000000000000 [Eh]

    Iter     Energy [mEh]          dE [mEh]         Residual      Time [s]
       1      -0.00003150       0.000031502       0.061262369             0
       2      -0.00002900      -0.000002499       0.014701635             0
       3      -0.00003222       0.000003221       0.005332585             0
       4      -0.00003247       0.000000251       0.002169471             1
       5      -0.00003236      -0.000000118       0.001060438             1
       6      -0.00003233      -0.000000025       0.000332792             1
       7      -0.00003234       0.000000010       0.000158937             1
       8      -0.00003235       0.000000006       0.000050056             1
       9      -0.00003235      -0.000000000       0.000015753             1
      10      -0.00003235      -0.000000001       0.000003493             1
      11      -0.00003235       0.000000000       0.000001167             1
      12      -0.00003235       0.000000000       0.000000248             2

    CHF Iterations converged


    Iter     Energy [mEh]          dE [mEh]         Residual      Time [s]
       1      -0.00006095       0.000060954       0.079790419             0
       2      -0.00005634      -0.000004619       0.020295417             0
       3      -0.00006128       0.000004945       0.009469075             0
       4      -0.00006250       0.000001222       0.002511269             0
       5      -0.00006232      -0.000000180       0.001692596             0
       6      -0.00006222      -0.000000106       0.000540247             0
       7      -0.00006224       0.000000023       0.000242383             0
       8      -0.00006225       0.000000012       0.000078668             1
       9      -0.00006225      -0.000000000       0.000017953             1
      10      -0.00006225      -0.000000001       0.000004485             1
      11      -0.00006225       0.000000000       0.000001512             1
      12      -0.00006225       0.000000000       0.000000388             1

    CHF Iterations converged

    Ind20,r (A<-B)      =    -0.000000032345 [Eh]
    Ind20,r (B<-A)      =    -0.000000062250 [Eh]
    Ind20,r             =    -0.000000094595 [Eh]
    Exch-Ind20,r (A<-B) =     0.000000000000 [Eh]
    Exch-Ind20,r (B<-A) =     0.000000000000 [Eh]
    Exch-Ind20,r        =     0.000000000000 [Eh]
    Disp20              =    -0.000000983758 [Eh]
    Disp20 (SS)         =    -0.000000491879 [Eh]
    Disp20 (OS)         =    -0.000000491879 [Eh]
    Exch-Disp20         =     0.000000000000 [Eh]
    Exch-Disp20 (SS)    =     0.000000000000 [Eh]
    Exch-Disp20 (OS)    =     0.000000000000 [Eh]

    SAPT Results 
  --------------------------------------------------------------------------------------------------------
    Electrostatics                  0.03625453 [mEh]       0.02275006 [kcal/mol]       0.09518626 [kJ/mol]
      Elst10,r                      0.03625453 [mEh]       0.02275006 [kcal/mol]       0.09518626 [kJ/mol]

    Exchange                        0.00000000 [mEh]       0.00000000 [kcal/mol]       0.00000000 [kJ/mol]
      Exch10                        0.00000000 [mEh]       0.00000000 [kcal/mol]       0.00000000 [kJ/mol]
      Exch10(S^2)                   0.00000000 [mEh]       0.00000000 [kcal/mol]       0.00000000 [kJ/mol]

    Induction                      -0.00004272 [mEh]      -0.00002681 [kcal/mol]      -0.00011216 [kJ/mol]
      Ind20,r                      -0.00009460 [mEh]      -0.00005936 [kcal/mol]      -0.00024836 [kJ/mol]
      Exch-Ind20,r                  0.00000000 [mEh]       0.00000000 [kcal/mol]       0.00000000 [kJ/mol]
      delta HF,r (2)                0.00005187 [mEh]       0.00003255 [kcal/mol]       0.00013620 [kJ/mol]

    Dispersion                     -0.00098376 [mEh]      -0.00061732 [kcal/mol]      -0.00258286 [kJ/mol]
      Disp20                       -0.00098376 [mEh]      -0.00061732 [kcal/mol]      -0.00258286 [kJ/mol]
      Exch-Disp20                   0.00000000 [mEh]       0.00000000 [kcal/mol]       0.00000000 [kJ/mol]
      Disp20 (SS)                  -0.00049188 [mEh]      -0.00030866 [kcal/mol]      -0.00129143 [kJ/mol]
      Disp20 (OS)                  -0.00049188 [mEh]      -0.00030866 [kcal/mol]      -0.00129143 [kJ/mol]
      Exch-Disp20 (SS)              0.00000000 [mEh]       0.00000000 [kcal/mol]       0.00000000 [kJ/mol]
      Exch-Disp20 (OS)              0.00000000 [mEh]       0.00000000 [kcal/mol]       0.00000000 [kJ/mol]

  Total HF                          0.03621181 [mEh]       0.02272325 [kcal/mol]       0.09507410 [kJ/mol]
  Total SAPT0                       0.03522805 [mEh]       0.02210594 [kcal/mol]       0.09249124 [kJ/mol]

  Special recipe for scaled SAPT0 (see Manual):
    Electrostatics sSAPT0           0.03625453 [mEh]       0.02275006 [kcal/mol]       0.09518626 [kJ/mol]
    Exchange sSAPT0                 0.00000000 [mEh]       0.00000000 [kcal/mol]       0.00000000 [kJ/mol]
    Induction sSAPT0               -0.00004272 [mEh]      -0.00002681 [kcal/mol]      -0.00011216 [kJ/mol]
    Dispersion sSAPT0              -0.00098376 [mEh]      -0.00061732 [kcal/mol]      -0.00258286 [kJ/mol]
  Total sSAPT0                      0.03522805 [mEh]       0.02210594 [kcal/mol]       0.09249124 [kJ/mol]
  --------------------------------------------------------------------------------------------------------

*** tstop() called on ds1 at Mon Oct  4 14:45:45 2021
Module time:
	user time   =      45.39 seconds =       0.76 minutes
	system time =       4.07 seconds =       0.07 minutes
	total time  =         10 seconds =       0.17 minutes
Total time:
	user time   =     102.25 seconds =       1.70 minutes
	system time =       5.40 seconds =       0.09 minutes
	total time  =         22 seconds =       0.37 minutes


Warning! sapt0 does not have an associated derived wavefunction.The returned wavefunction is the dimer SCF wavefunction.


    Psi4 stopped on: Monday, 04 October 2021 02:45PM
    Psi4 wall time for execution: 0:00:21.88

*** Psi4 exiting successfully. Buy a developer a beer!
