
    -----------------------------------------------------------------------
          Psi4: An Open-Source Ab Initio Electronic Structure Package
                               Psi4 1.4rc3 

                         Git: Rev {HEAD} 080dba6 


    D. G. A. Smith, L. A. Burns, A. C. Simmonett, R. M. Parrish,
    M. C. Schieber, R. Galvelis, P. Kraus, H. Kruse, R. Di Remigio,
    A. Alenaizan, A. M. James, S. Lehtola, J. P. Misiewicz, M. Scheurer,
    R. A. Shaw, J. B. Schriber, Y. Xie, Z. L. Glick, D. A. Sirianni,
    J. S. O'Brien, J. M. Waldrop, A. Kumar, E. G. Hohenstein,
    B. P. Pritchard, B. R. Brooks, H. F. Schaefer III, A. Yu. Sokolov,
    K. Patkowski, A. E. DePrince III, U. Bozkaya, R. A. King,
    F. A. Evangelista, J. M. Turney, T. D. Crawford, C. D. Sherrill,
    J. Chem. Phys. 152(18) 184108 (2020). https://doi.org/10.1063/5.0006002

                            Additional Code Authors
    E. T. Seidl, C. L. Janssen, E. F. Valeev, M. L. Leininger,
    J. F. Gonthier, R. M. Richard, H. R. McAlexander, M. Saitow, X. Wang,
    P. Verma, and M. H. Lechner

             Previous Authors, Complete List of Code Contributors,
                       and Citations for Specific Modules
    https://github.com/psi4/psi4/blob/master/codemeta.json
    https://github.com/psi4/psi4/graphs/contributors
    http://psicode.org/psi4manual/master/introduction.html#citing-psifour

    -----------------------------------------------------------------------


    Psi4 started on: Monday, 04 October 2021 03:26PM

    Process ID: 12931
    Host:       ds1
    PSIDATADIR: /theoryfs2/ds/csargent/miniconda3/envs/cle/share/psi4
    Memory:     500.0 MiB
    Threads:    6
    
  ==> Input File <==

--------------------------------------------------------------------------
# PSI4 file produced by CrystaLattE

# Generated from:               pyrazole.xyz
# Psithon input for N-mer:      2mer-0+604
# Number of atoms per monomer:  [9, 9]
# Number of replicas:           1
# COM priority:                 1.642438753132e-05
# Minimum COM separations:      20.818 
# Separation priority:          2.429115388754e-05
# Minimum monomer separations:  18.272 
# Cutoff priority:              7.035001490000e-07
# Nuclear repulsion energy:     366.1557346627429

memory 7 GB

molecule Dimer_0_604 {
  N            6.27981210      -4.25303372       0.19313865 
  N            6.06870777      -2.28125697       1.80544317 
  H            3.66871156      -5.64628941      -1.96684001 
  H            0.69034521      -2.37545694      -0.42864236 
  H            3.35917442       0.17650601       3.09265017 
  H            7.35266782      -1.99461311       2.90680702 
  C            3.77952586      -1.21508453       1.76858172 
  C            2.38242998      -2.55505538       0.04607681 
  C            4.01771468      -4.38410490      -0.88761863 
--
  N           26.01342381     -33.28089873      11.25733365 
  N           26.13228607     -31.24299170      12.79450737 
  H           28.68658654     -35.68180870      10.53930329 
  H           31.58122310     -33.23926996      13.29444080 
  H           28.64479903     -29.52622094      15.19907711 
  H           24.66987785     -30.43301464      13.18027269 
  C           28.41512247     -30.91281603      13.82355622 
  C           29.89811491     -32.84248824      12.93363375 
  C           28.33680957     -34.22765606      11.34193580 
units = au
no_com
no_reorient
}

set {
  e_convergence 10
  d_convergence 10
  scf_type df
  mp2_type df
  cc_type df
  freeze_core true
}

energy('sapt0/aug-cc-pvdz')

--------------------------------------------------------------------------

  Memory set to   6.519 GiB by Python driver.

Scratch directory: /scratch/csargent/psi4.7158.66302/

Scratch directory: /scratch/csargent/psi4.7158.66302/

  //>>>>>>>>>>>>>>>>>>>>>>>>>>>>>>>>>>>//
  //              Dimer HF             //
  //<<<<<<<<<<<<<<<<<<<<<<<<<<<<<<<<<<<//


*** tstart() called on ds1
*** at Mon Oct  4 15:26:17 2021

   => Loading Basis Set <=

    Name: AUG-CC-PVDZ
    Role: ORBITAL
    Keyword: BASIS
    atoms 1-2, 10-11 entry N          line   218 file /theoryfs2/ds/csargent/miniconda3/envs/cle/share/psi4/basis/aug-cc-pvdz.gbs 
    atoms 3-6, 12-15 entry H          line    40 file /theoryfs2/ds/csargent/miniconda3/envs/cle/share/psi4/basis/aug-cc-pvdz.gbs 
    atoms 7-9, 16-18 entry C          line   182 file /theoryfs2/ds/csargent/miniconda3/envs/cle/share/psi4/basis/aug-cc-pvdz.gbs 


         ---------------------------------------------------------
                                   SCF
               by Justin Turney, Rob Parrish, Andy Simmonett
                          and Daniel G. A. Smith
                              RHF Reference
                        6 Threads,   6675 MiB Core
         ---------------------------------------------------------

  ==> Geometry <==

    Molecular point group: c1
    Full point group: C1

    Geometry (in Bohr), charge = 0, multiplicity = 1:

       Center              X                  Y                   Z               Mass       
    ------------   -----------------  -----------------  -----------------  -----------------
         N            6.279812100000    -4.253033720000     0.193138650000    14.003074004430
         N            6.068707770000    -2.281256970000     1.805443170000    14.003074004430
         H            3.668711560000    -5.646289410000    -1.966840010000     1.007825032230
         H            0.690345210000    -2.375456940000    -0.428642360000     1.007825032230
         H            3.359174420000     0.176506010000     3.092650170000     1.007825032230
         H            7.352667820000    -1.994613110000     2.906807020000     1.007825032230
         C            3.779525860000    -1.215084530000     1.768581720000    12.000000000000
         C            2.382429980000    -2.555055380000     0.046076810000    12.000000000000
         C            4.017714680000    -4.384104900000    -0.887618630000    12.000000000000
         N           26.013423810000   -33.280898730000    11.257333650000    14.003074004430
         N           26.132286070000   -31.242991700000    12.794507370000    14.003074004430
         H           28.686586540000   -35.681808700000    10.539303290000     1.007825032230
         H           31.581223100000   -33.239269960000    13.294440800000     1.007825032230
         H           28.644799030000   -29.526220940000    15.199077110000     1.007825032230
         H           24.669877850000   -30.433014640000    13.180272690000     1.007825032230
         C           28.415122470000   -30.912816030000    13.823556220000    12.000000000000
         C           29.898114910000   -32.842488240000    12.933633750000    12.000000000000
         C           28.336809570000   -34.227656060000    11.341935800000    12.000000000000

  Running in c1 symmetry.

  Rotational constants: A =      0.09128  B =      0.00044  C =      0.00044 [cm^-1]
  Rotational constants: A =   2736.59009  B =     13.19178  C =     13.17561 [MHz]
  Nuclear repulsion =  366.155734668482751

  Charge       = 0
  Multiplicity = 1
  Electrons    = 72
  Nalpha       = 36
  Nbeta        = 36

  ==> Algorithm <==

  SCF Algorithm Type is DF.
  DIIS enabled.
  MOM disabled.
  Fractional occupation disabled.
  Guess Type is SAD.
  Energy threshold   = 1.00e-10
  Density threshold  = 1.00e-10
  Integral threshold = 1.00e-12

  ==> Primary Basis <==

  Basis Set: AUG-CC-PVDZ
    Blend: AUG-CC-PVDZ
    Number of shells: 130
    Number of basis functions: 302
    Number of Cartesian functions: 322
    Spherical Harmonics?: true
    Max angular momentum: 2

   => Loading Basis Set <=

    Name: (AUG-CC-PVDZ AUX)
    Role: JKFIT
    Keyword: DF_BASIS_SCF
    atoms 1-2, 10-11 entry N          line   212 file /theoryfs2/ds/csargent/miniconda3/envs/cle/share/psi4/basis/aug-cc-pvdz-jkfit.gbs 
    atoms 3-6, 12-15 entry H          line    70 file /theoryfs2/ds/csargent/miniconda3/envs/cle/share/psi4/basis/aug-cc-pvdz-jkfit.gbs 
    atoms 7-9, 16-18 entry C          line   154 file /theoryfs2/ds/csargent/miniconda3/envs/cle/share/psi4/basis/aug-cc-pvdz-jkfit.gbs 

  ==> Integral Setup <==

  ==> DiskDFJK: Density-Fitted J/K Matrices <==

    J tasked:                  Yes
    K tasked:                  Yes
    wK tasked:                  No
    OpenMP threads:              6
    Integrals threads:           6
    Memory [MiB]:             5006
    Algorithm:                Core
    Integral Cache:           SAVE
    Schwarz Cutoff:          1E-12
    Fitting Condition:       1E-10

   => Auxiliary Basis Set <=

  Basis Set: (AUG-CC-PVDZ AUX)
    Blend: AUG-CC-PVDZ-JKFIT
    Number of shells: 376
    Number of basis functions: 1116
    Number of Cartesian functions: 1290
    Spherical Harmonics?: true
    Max angular momentum: 3

  Minimum eigenvalue in the overlap matrix is 3.0324469301E-05.
  Reciprocal condition number of the overlap matrix is 2.4867199381E-06.
    Using symmetric orthogonalization.

  ==> Pre-Iterations <==

  SCF Guess: Superposition of Atomic Densities via on-the-fly atomic UHF (no occupation information).

   -------------------------
    Irrep   Nso     Nmo    
   -------------------------
     A        302     302 
   -------------------------
    Total     302     302
   -------------------------

  ==> Iterations <==

                           Total Energy        Delta E     RMS |[F,P]|

   @DF-RHF iter SAD:  -449.44445656135929   -4.49444e+02   0.00000e+00 
   @DF-RHF iter   1:  -449.27102956665982    1.73427e-01   2.12820e-03 DIIS
   @DF-RHF iter   2:  -449.47975198762958   -2.08722e-01   9.73908e-04 DIIS
   @DF-RHF iter   3:  -449.52159225576986   -4.18403e-02   2.10257e-04 DIIS
   @DF-RHF iter   4:  -449.52436189372236   -2.76964e-03   8.56549e-05 DIIS
   @DF-RHF iter   5:  -449.52471897797727   -3.57084e-04   1.69525e-05 DIIS
   @DF-RHF iter   6:  -449.52475287158177   -3.38936e-05   7.02330e-06 DIIS
   @DF-RHF iter   7:  -449.52476077426581   -7.90268e-06   3.09638e-06 DIIS
   @DF-RHF iter   8:  -449.52476229648829   -1.52222e-06   1.43809e-06 DIIS
   @DF-RHF iter   9:  -449.52476263206370   -3.35575e-07   4.01083e-07 DIIS
   @DF-RHF iter  10:  -449.52476264974393   -1.76802e-08   1.20969e-07 DIIS
   @DF-RHF iter  11:  -449.52476265112449   -1.38056e-09   2.82547e-08 DIIS
   @DF-RHF iter  12:  -449.52476265121794   -9.34506e-11   8.22570e-09 DIIS
   @DF-RHF iter  13:  -449.52476265122556   -7.61702e-12   4.01322e-09 DIIS
   @DF-RHF iter  14:  -449.52476265122749   -1.93268e-12   1.38547e-09 DIIS
   @DF-RHF iter  15:  -449.52476265122800   -5.11591e-13   5.89470e-10 DIIS
   @DF-RHF iter  16:  -449.52476265122846   -4.54747e-13   1.78811e-10 DIIS
   @DF-RHF iter  17:  -449.52476265122760    8.52651e-13   6.39840e-11 DIIS
  Energy and wave function converged.


  ==> Post-Iterations <==

    Orbital Energies [Eh]
    ---------------------

    Doubly Occupied:                                                      

       1A    -15.636304     2A    -15.635827     3A    -15.592383  
       4A    -15.591886     5A    -11.279972     6A    -11.279509  
       7A    -11.237847     8A    -11.237357     9A    -11.209960  
      10A    -11.209496    11A     -1.386999    12A     -1.386595  
      13A     -1.121976    14A     -1.121488    15A     -1.066972  
      16A     -1.066532    17A     -0.872840    18A     -0.872358  
      19A     -0.837128    20A     -0.836644    21A     -0.757370  
      22A     -0.756880    23A     -0.645817    24A     -0.645345  
      25A     -0.620901    26A     -0.620435    27A     -0.609218  
      28A     -0.608770    29A     -0.583992    30A     -0.583513  
      31A     -0.461474    32A     -0.461003    33A     -0.370790  
      34A     -0.370311    35A     -0.346122    36A     -0.345657  

    Virtual:                                                              

      37A      0.030619    38A      0.031134    39A      0.042349  
      40A      0.042703    41A      0.049077    42A      0.049560  
      43A      0.063461    44A      0.063893    45A      0.100896  
      46A      0.101389    47A      0.103964    48A      0.104432  
      49A      0.117150    50A      0.117570    51A      0.126196  
      52A      0.126685    53A      0.132979    54A      0.133442  
      55A      0.138363    56A      0.138765    57A      0.141448  
      58A      0.141820    59A      0.156833    60A      0.157237  
      61A      0.164557    62A      0.164944    63A      0.170996  
      64A      0.171489    65A      0.178358    66A      0.178792  
      67A      0.195922    68A      0.196481    69A      0.204701  
      70A      0.205226    71A      0.206074    72A      0.206592  
      73A      0.240183    74A      0.240633    75A      0.243551  
      76A      0.244038    77A      0.244900    78A      0.245384  
      79A      0.271063    80A      0.271552    81A      0.278980  
      82A      0.279490    83A      0.300986    84A      0.301440  
      85A      0.325066    86A      0.325541    87A      0.352275  
      88A      0.352747    89A      0.355300    90A      0.355744  
      91A      0.374826    92A      0.375291    93A      0.395983  
      94A      0.396437    95A      0.402662    96A      0.403139  
      97A      0.414942    98A      0.415366    99A      0.432043  
     100A      0.432541   101A      0.443336   102A      0.443783  
     103A      0.453321   104A      0.453819   105A      0.459757  
     106A      0.460196   107A      0.478558   108A      0.479065  
     109A      0.498481   110A      0.498937   111A      0.508626  
     112A      0.509087   113A      0.521836   114A      0.522337  
     115A      0.541497   116A      0.541957   117A      0.574345  
     118A      0.574832   119A      0.586242   120A      0.586713  
     121A      0.590464   122A      0.590934   123A      0.602335  
     124A      0.602824   125A      0.620886   126A      0.621363  
     127A      0.646045   128A      0.646500   129A      0.655232  
     130A      0.655679   131A      0.676092   132A      0.676558  
     133A      0.697977   134A      0.698429   135A      0.700317  
     136A      0.700779   137A      0.721598   138A      0.722043  
     139A      0.725037   140A      0.725509   141A      0.747640  
     142A      0.748110   143A      0.758529   144A      0.759037  
     145A      0.773250   146A      0.773698   147A      0.781400  
     148A      0.781884   149A      0.828441   150A      0.828919  
     151A      0.838149   152A      0.838635   153A      0.848330  
     154A      0.848769   155A      0.881333   156A      0.881788  
     157A      0.888692   158A      0.889151   159A      0.906883  
     160A      0.907347   161A      0.924736   162A      0.925209  
     163A      0.942513   164A      0.943002   165A      0.978159  
     166A      0.978595   167A      0.984781   168A      0.985247  
     169A      1.011084   170A      1.011585   171A      1.046528  
     172A      1.047039   173A      1.066435   174A      1.066895  
     175A      1.100768   176A      1.101261   177A      1.127991  
     178A      1.128495   179A      1.134121   180A      1.134555  
     181A      1.150164   182A      1.150628   183A      1.175100  
     184A      1.175565   185A      1.220479   186A      1.220942  
     187A      1.269485   188A      1.269972   189A      1.303271  
     190A      1.303797   191A      1.311323   192A      1.311834  
     193A      1.365732   194A      1.366210   195A      1.400979  
     196A      1.401430   197A      1.474612   198A      1.475120  
     199A      1.511947   200A      1.512426   201A      1.526062  
     202A      1.526529   203A      1.560923   204A      1.561373  
     205A      1.590810   206A      1.591276   207A      1.608602  
     208A      1.609071   209A      1.637371   210A      1.637819  
     211A      1.669403   212A      1.669884   213A      1.703559  
     214A      1.704030   215A      1.723878   216A      1.724356  
     217A      1.749149   218A      1.749648   219A      1.764300  
     220A      1.764765   221A      1.804981   222A      1.805423  
     223A      1.875556   224A      1.875979   225A      1.932320  
     226A      1.932804   227A      1.943491   228A      1.943948  
     229A      1.988005   230A      1.988532   231A      2.021375  
     232A      2.021853   233A      2.057539   234A      2.058058  
     235A      2.088760   236A      2.089209   237A      2.144615  
     238A      2.145107   239A      2.189932   240A      2.190392  
     241A      2.200762   242A      2.201222   243A      2.230379  
     244A      2.230856   245A      2.275764   246A      2.276225  
     247A      2.307562   248A      2.308038   249A      2.360651  
     250A      2.361039   251A      2.389057   252A      2.389520  
     253A      2.393730   254A      2.394170   255A      2.435167  
     256A      2.435609   257A      2.464877   258A      2.465354  
     259A      2.531725   260A      2.532187   261A      2.570159  
     262A      2.570595   263A      2.584631   264A      2.585228  
     265A      2.642884   266A      2.643360   267A      2.732947  
     268A      2.733411   269A      2.826768   270A      2.827209  
     271A      2.834680   272A      2.835109   273A      2.901510  
     274A      2.901947   275A      2.918515   276A      2.918970  
     277A      2.999083   278A      2.999594   279A      3.055247  
     280A      3.055712   281A      3.092285   282A      3.092848  
     283A      3.122657   284A      3.123103   285A      3.188865  
     286A      3.189413   287A      3.221937   288A      3.222427  
     289A      3.297796   290A      3.298318   291A      3.380161  
     292A      3.380610   293A      3.520652   294A      3.521169  
     295A      3.686494   296A      3.686691   297A      3.889248  
     298A      3.889658   299A      4.209356   300A      4.209719  
     301A      4.463168   302A      4.463423  

    Final Occupation by Irrep:
              A 
    DOCC [    36 ]

  @DF-RHF Final Energy:  -449.52476265122760

   => Energetics <=

    Nuclear Repulsion Energy =            366.1557346684827507
    One-Electron Energy =               -1332.8256501877835944
    Two-Electron Energy =                 517.1451528680732963
    Total Energy =                       -449.5247626512275474

Computation Completed


Properties will be evaluated at   0.000000,   0.000000,   0.000000 [a0]

Properties computed using the SCF density matrix

  Nuclear Dipole Moment: [e a0]
     X:  1161.0913      Y: -1272.9507      Z:   472.3270

  Electronic Dipole Moment: [e a0]
     X: -1161.2041      Y:  1274.1464      Z:  -471.0458

  Dipole Moment: [e a0]
     X:    -0.1128      Y:     1.1957      Z:     1.2812     Total:     1.7561

  Dipole Moment: [D]
     X:    -0.2867      Y:     3.0392      Z:     3.2566     Total:     4.4636


*** tstop() called on ds1 at Mon Oct  4 15:26:22 2021
Module time:
	user time   =      22.17 seconds =       0.37 minutes
	system time =       0.55 seconds =       0.01 minutes
	total time  =          5 seconds =       0.08 minutes
Total time:
	user time   =      22.17 seconds =       0.37 minutes
	system time =       0.55 seconds =       0.01 minutes
	total time  =          5 seconds =       0.08 minutes

  //>>>>>>>>>>>>>>>>>>>>>>>>>>>>>>>>>>>//
  //            Monomer A HF           //
  //<<<<<<<<<<<<<<<<<<<<<<<<<<<<<<<<<<<//


*** tstart() called on ds1
*** at Mon Oct  4 15:26:22 2021

   => Loading Basis Set <=

    Name: AUG-CC-PVDZ
    Role: ORBITAL
    Keyword: BASIS
    atoms 1-2, 10-11 entry N          line   218 file /theoryfs2/ds/csargent/miniconda3/envs/cle/share/psi4/basis/aug-cc-pvdz.gbs 
    atoms 3-6, 12-15 entry H          line    40 file /theoryfs2/ds/csargent/miniconda3/envs/cle/share/psi4/basis/aug-cc-pvdz.gbs 
    atoms 7-9, 16-18 entry C          line   182 file /theoryfs2/ds/csargent/miniconda3/envs/cle/share/psi4/basis/aug-cc-pvdz.gbs 


         ---------------------------------------------------------
                                   SCF
               by Justin Turney, Rob Parrish, Andy Simmonett
                          and Daniel G. A. Smith
                              RHF Reference
                        6 Threads,   6675 MiB Core
         ---------------------------------------------------------

  ==> Geometry <==

    Molecular point group: c1
    Full point group: C1

    Geometry (in Bohr), charge = 0, multiplicity = 1:

       Center              X                  Y                   Z               Mass       
    ------------   -----------------  -----------------  -----------------  -----------------
         N            6.279812100000    -4.253033720000     0.193138650000    14.003074004430
         N            6.068707770000    -2.281256970000     1.805443170000    14.003074004430
         H            3.668711560000    -5.646289410000    -1.966840010000     1.007825032230
         H            0.690345210000    -2.375456940000    -0.428642360000     1.007825032230
         H            3.359174420000     0.176506010000     3.092650170000     1.007825032230
         H            7.352667820000    -1.994613110000     2.906807020000     1.007825032230
         C            3.779525860000    -1.215084530000     1.768581720000    12.000000000000
         C            2.382429980000    -2.555055380000     0.046076810000    12.000000000000
         C            4.017714680000    -4.384104900000    -0.887618630000    12.000000000000
      Gh(N)          26.013423810000   -33.280898730000    11.257333650000    14.003074004430
      Gh(N)          26.132286070000   -31.242991700000    12.794507370000    14.003074004430
      Gh(H)          28.686586540000   -35.681808700000    10.539303290000     1.007825032230
      Gh(H)          31.581223100000   -33.239269960000    13.294440800000     1.007825032230
      Gh(H)          28.644799030000   -29.526220940000    15.199077110000     1.007825032230
      Gh(H)          24.669877850000   -30.433014640000    13.180272690000     1.007825032230
      Gh(C)          28.415122470000   -30.912816030000    13.823556220000    12.000000000000
      Gh(C)          29.898114910000   -32.842488240000    12.933633750000    12.000000000000
      Gh(C)          28.336809570000   -34.227656060000    11.341935800000    12.000000000000

  Running in c1 symmetry.

  Rotational constants: A =      0.09128  B =      0.00044  C =      0.00044 [cm^-1]
  Rotational constants: A =   2736.59009  B =     13.19178  C =     13.17561 [MHz]
  Nuclear repulsion =  166.624056450327203

  Charge       = 0
  Multiplicity = 1
  Electrons    = 36
  Nalpha       = 18
  Nbeta        = 18

  ==> Algorithm <==

  SCF Algorithm Type is DF.
  DIIS enabled.
  MOM disabled.
  Fractional occupation disabled.
  Guess Type is SAD.
  Energy threshold   = 1.00e-10
  Density threshold  = 1.00e-10
  Integral threshold = 1.00e-12

  ==> Primary Basis <==

  Basis Set: AUG-CC-PVDZ
    Blend: AUG-CC-PVDZ
    Number of shells: 130
    Number of basis functions: 302
    Number of Cartesian functions: 322
    Spherical Harmonics?: true
    Max angular momentum: 2

   => Loading Basis Set <=

    Name: (AUG-CC-PVDZ AUX)
    Role: JKFIT
    Keyword: DF_BASIS_SCF
    atoms 1-2, 10-11 entry N          line   212 file /theoryfs2/ds/csargent/miniconda3/envs/cle/share/psi4/basis/aug-cc-pvdz-jkfit.gbs 
    atoms 3-6, 12-15 entry H          line    70 file /theoryfs2/ds/csargent/miniconda3/envs/cle/share/psi4/basis/aug-cc-pvdz-jkfit.gbs 
    atoms 7-9, 16-18 entry C          line   154 file /theoryfs2/ds/csargent/miniconda3/envs/cle/share/psi4/basis/aug-cc-pvdz-jkfit.gbs 

  ==> Integral Setup <==

  ==> DiskDFJK: Density-Fitted J/K Matrices <==

    J tasked:                  Yes
    K tasked:                  Yes
    wK tasked:                  No
    OpenMP threads:              6
    Integrals threads:           6
    Memory [MiB]:             5006
    Algorithm:                Core
    Integral Cache:           LOAD
    Schwarz Cutoff:          1E-12
    Fitting Condition:       1E-10

   => Auxiliary Basis Set <=

  Basis Set: (AUG-CC-PVDZ AUX)
    Blend: AUG-CC-PVDZ-JKFIT
    Number of shells: 376
    Number of basis functions: 1116
    Number of Cartesian functions: 1290
    Spherical Harmonics?: true
    Max angular momentum: 3

  Minimum eigenvalue in the overlap matrix is 3.0324469301E-05.
  Reciprocal condition number of the overlap matrix is 2.4867199381E-06.
    Using symmetric orthogonalization.

  ==> Pre-Iterations <==

  SCF Guess: Superposition of Atomic Densities via on-the-fly atomic UHF (no occupation information).

   -------------------------
    Irrep   Nso     Nmo    
   -------------------------
     A        302     302 
   -------------------------
    Total     302     302
   -------------------------

  ==> Iterations <==

                           Total Energy        Delta E     RMS |[F,P]|

   @DF-RHF iter SAD:  -224.72194801258712   -2.24722e+02   0.00000e+00 
   @DF-RHF iter   1:  -224.63549170003722    8.64563e-02   1.50472e-03 DIIS
   @DF-RHF iter   2:  -224.73984613277554   -1.04354e-01   6.88462e-04 DIIS
   @DF-RHF iter   3:  -224.76075487165366   -2.09087e-02   1.48626e-04 DIIS
   @DF-RHF iter   4:  -224.76213931543222   -1.38444e-03   6.05310e-05 DIIS
   @DF-RHF iter   5:  -224.76231767019047   -1.78355e-04   1.19893e-05 DIIS
   @DF-RHF iter   6:  -224.76233462766447   -1.69575e-05   4.96772e-06 DIIS
   @DF-RHF iter   7:  -224.76233858370145   -3.95604e-06   2.18806e-06 DIIS
   @DF-RHF iter   8:  -224.76233934444440   -7.60743e-07   1.01700e-06 DIIS
   @DF-RHF iter   9:  -224.76233951208664   -1.67642e-07   2.83302e-07 DIIS
   @DF-RHF iter  10:  -224.76233952090683   -8.82019e-09   8.55547e-08 DIIS
   @DF-RHF iter  11:  -224.76233952159663   -6.89795e-10   1.99714e-08 DIIS
   @DF-RHF iter  12:  -224.76233952164259   -4.59579e-11   5.81092e-09 DIIS
   @DF-RHF iter  13:  -224.76233952164671   -4.12115e-12   2.83097e-09 DIIS
   @DF-RHF iter  14:  -224.76233952164790   -1.19371e-12   9.75191e-10 DIIS
   @DF-RHF iter  15:  -224.76233952164802   -1.13687e-13   4.15548e-10 DIIS
   @DF-RHF iter  16:  -224.76233952164816   -1.42109e-13   1.25998e-10 DIIS
   @DF-RHF iter  17:  -224.76233952164793    2.27374e-13   4.47778e-11 DIIS
  Energy and wave function converged.


  ==> Post-Iterations <==

    Orbital Energies [Eh]
    ---------------------

    Doubly Occupied:                                                      

       1A    -15.636223     2A    -15.592313     3A    -11.279894  
       4A    -11.237784     5A    -11.209891     6A     -1.386922  
       7A     -1.121901     8A     -1.066898     9A     -0.872768  
      10A     -0.837061    11A     -0.757292    12A     -0.645746  
      13A     -0.620834    14A     -0.609140    15A     -0.583920  
      16A     -0.461404    17A     -0.370721    18A     -0.346048  

    Virtual:                                                              

      19A      0.023093    20A      0.030764    21A      0.040402  
      22A      0.042368    23A      0.044565    24A      0.049159  
      25A      0.063520    26A      0.066277    27A      0.084402  
      28A      0.091187    29A      0.099380    30A      0.100998  
      31A      0.104029    32A      0.117179    33A      0.118749  
      34A      0.126239    35A      0.126270    36A      0.128637  
      37A      0.133069    38A      0.133786    39A      0.134534  
      40A      0.138403    41A      0.141490    42A      0.156889  
      43A      0.158940    44A      0.164592    45A      0.166364  
      46A      0.171075    47A      0.178408    48A      0.179632  
      49A      0.195958    50A      0.196042    51A      0.201958  
      52A      0.204793    53A      0.206162    54A      0.223413  
      55A      0.225560    56A      0.228693    57A      0.236031  
      58A      0.240236    59A      0.243626    60A      0.244965  
      61A      0.264532    62A      0.271127    63A      0.271466  
      64A      0.279080    65A      0.301010    66A      0.322383  
      67A      0.325148    68A      0.340515    69A      0.352358  
      70A      0.355357    71A      0.366995    72A      0.373323  
      73A      0.374907    74A      0.384149    75A      0.396061  
      76A      0.402741    77A      0.414998    78A      0.427920  
      79A      0.432132    80A      0.432488    81A      0.441585  
      82A      0.442742    83A      0.443385    84A      0.453393  
      85A      0.456457    86A      0.457861    87A      0.459816  
      88A      0.462333    89A      0.478655    90A      0.498543  
      91A      0.508690    92A      0.510169    93A      0.519880  
      94A      0.521917    95A      0.533586    96A      0.538477  
      97A      0.541560    98A      0.559765    99A      0.569297  
     100A      0.572270   101A      0.574432   102A      0.586318  
     103A      0.590538   104A      0.595583   105A      0.602413  
     106A      0.613822   107A      0.620953   108A      0.621714  
     109A      0.633983   110A      0.646110   111A      0.655295  
     112A      0.676162   113A      0.691260   114A      0.698041  
     115A      0.700391   116A      0.708271   117A      0.719894  
     118A      0.721667   119A      0.725115   120A      0.736100  
     121A      0.745815   122A      0.747709   123A      0.758592  
     124A      0.773318   125A      0.781481   126A      0.790164  
     127A      0.798575   128A      0.814888   129A      0.821396  
     130A      0.828504   131A      0.838230   132A      0.848394  
     133A      0.852390   134A      0.855551   135A      0.871450  
     136A      0.881395   137A      0.881530   138A      0.888767  
     139A      0.896137   140A      0.906950   141A      0.916633  
     142A      0.924815   143A      0.942582   144A      0.952589  
     145A      0.978222   146A      0.984850   147A      0.997669  
     148A      1.011149   149A      1.024660   150A      1.030749  
     151A      1.046606   152A      1.052151   153A      1.066503  
     154A      1.071583   155A      1.081483   156A      1.100852  
     157A      1.108729   158A      1.128058   159A      1.134196  
     160A      1.150235   161A      1.159345   162A      1.166848  
     163A      1.175168   164A      1.185514   165A      1.220548  
     166A      1.222304   167A      1.237609   168A      1.268538  
     169A      1.269556   170A      1.294326   171A      1.303342  
     172A      1.311399   173A      1.315717   174A      1.341231  
     175A      1.365807   176A      1.382406   177A      1.401043  
     178A      1.435594   179A      1.445329   180A      1.474691  
     181A      1.493785   182A      1.507645   183A      1.512027  
     184A      1.526129   185A      1.560989   186A      1.590882  
     187A      1.608669   188A      1.637437   189A      1.669472  
     190A      1.677310   191A      1.689484   192A      1.703634  
     193A      1.723950   194A      1.749215   195A      1.764373  
     196A      1.805048   197A      1.875632   198A      1.932390  
     199A      1.943558   200A      1.988067   201A      2.021445  
     202A      2.041619   203A      2.057611   204A      2.088839  
     205A      2.109618   206A      2.135340   207A      2.144687  
     208A      2.168641   209A      2.190005   210A      2.200827  
     211A      2.217172   212A      2.230457   213A      2.234405  
     214A      2.262419   215A      2.275825   216A      2.278276  
     217A      2.289813   218A      2.307640   219A      2.336195  
     220A      2.360716   221A      2.381155   222A      2.389130  
     223A      2.393822   224A      2.395094   225A      2.435246  
     226A      2.444421   227A      2.464967   228A      2.478839  
     229A      2.500476   230A      2.514280   231A      2.531798  
     232A      2.549368   233A      2.570232   234A      2.584716  
     235A      2.631899   236A      2.642961   237A      2.668108  
     238A      2.703613   239A      2.719449   240A      2.733029  
     241A      2.826838   242A      2.828507   243A      2.834751  
     244A      2.870414   245A      2.890584   246A      2.901587  
     247A      2.918598   248A      2.945671   249A      2.999157  
     250A      3.028547   251A      3.055324   252A      3.090334  
     253A      3.092358   254A      3.122730   255A      3.140609  
     256A      3.182468   257A      3.188930   258A      3.222008  
     259A      3.254758   260A      3.289732   261A      3.297865  
     262A      3.356275   263A      3.380235   264A      3.396242  
     265A      3.424020   266A      3.448800   267A      3.487797  
     268A      3.498118   269A      3.520727   270A      3.634245  
     271A      3.667567   272A      3.686563   273A      3.736220  
     274A      3.770749   275A      3.851770   276A      3.889327  
     277A      3.965126   278A      4.036274   279A      4.095381  
     280A      4.209428   281A      4.244683   282A      4.448862  
     283A      4.463235   284A      4.659116   285A      4.708785  
     286A      4.750530   287A      4.811451   288A      4.995458  
     289A      5.077340   290A      5.241848   291A      5.532093  
     292A      5.669666   293A      5.827262   294A      6.107653  
     295A      6.318755   296A      6.708174   297A      6.968130  
     298A     18.111747   299A     18.648648   300A     19.374264  
     301A     25.246087   302A     25.705976  

    Final Occupation by Irrep:
              A 
    DOCC [    18 ]

  @DF-RHF Final Energy:  -224.76233952164793

   => Energetics <=

    Nuclear Repulsion Energy =            166.6240564503272026
    One-Electron Energy =                -633.4992733862949308
    Two-Electron Energy =                 242.1128774143197973
    Total Energy =                       -224.7623395216479310

Computation Completed


Properties will be evaluated at   0.000000,   0.000000,   0.000000 [a0]

Properties computed using the SCF density matrix

  Nuclear Dipole Moment: [e a0]
     X:   162.5886      Y:  -104.5054      Z:    23.1563

  Electronic Dipole Moment: [e a0]
     X:  -162.9913      Y:   105.1370      Z:   -22.5767

  Dipole Moment: [e a0]
     X:    -0.4027      Y:     0.6317      Z:     0.5796     Total:     0.9472

  Dipole Moment: [D]
     X:    -1.0235      Y:     1.6055      Z:     1.4733     Total:     2.4075


*** tstop() called on ds1 at Mon Oct  4 15:26:26 2021
Module time:
	user time   =      16.30 seconds =       0.27 minutes
	system time =       0.36 seconds =       0.01 minutes
	total time  =          4 seconds =       0.07 minutes
Total time:
	user time   =      38.49 seconds =       0.64 minutes
	system time =       0.91 seconds =       0.02 minutes
	total time  =          9 seconds =       0.15 minutes

  //>>>>>>>>>>>>>>>>>>>>>>>>>>>>>>>>>>>//
  //            Monomer B HF           //
  //<<<<<<<<<<<<<<<<<<<<<<<<<<<<<<<<<<<//


*** tstart() called on ds1
*** at Mon Oct  4 15:26:26 2021

   => Loading Basis Set <=

    Name: AUG-CC-PVDZ
    Role: ORBITAL
    Keyword: BASIS
    atoms 1-2, 10-11 entry N          line   218 file /theoryfs2/ds/csargent/miniconda3/envs/cle/share/psi4/basis/aug-cc-pvdz.gbs 
    atoms 3-6, 12-15 entry H          line    40 file /theoryfs2/ds/csargent/miniconda3/envs/cle/share/psi4/basis/aug-cc-pvdz.gbs 
    atoms 7-9, 16-18 entry C          line   182 file /theoryfs2/ds/csargent/miniconda3/envs/cle/share/psi4/basis/aug-cc-pvdz.gbs 


         ---------------------------------------------------------
                                   SCF
               by Justin Turney, Rob Parrish, Andy Simmonett
                          and Daniel G. A. Smith
                              RHF Reference
                        6 Threads,   6675 MiB Core
         ---------------------------------------------------------

  ==> Geometry <==

    Molecular point group: c1
    Full point group: C1

    Geometry (in Bohr), charge = 0, multiplicity = 1:

       Center              X                  Y                   Z               Mass       
    ------------   -----------------  -----------------  -----------------  -----------------
      Gh(N)           6.279812100000    -4.253033720000     0.193138650000    14.003074004430
      Gh(N)           6.068707770000    -2.281256970000     1.805443170000    14.003074004430
      Gh(H)           3.668711560000    -5.646289410000    -1.966840010000     1.007825032230
      Gh(H)           0.690345210000    -2.375456940000    -0.428642360000     1.007825032230
      Gh(H)           3.359174420000     0.176506010000     3.092650170000     1.007825032230
      Gh(H)           7.352667820000    -1.994613110000     2.906807020000     1.007825032230
      Gh(C)           3.779525860000    -1.215084530000     1.768581720000    12.000000000000
      Gh(C)           2.382429980000    -2.555055380000     0.046076810000    12.000000000000
      Gh(C)           4.017714680000    -4.384104900000    -0.887618630000    12.000000000000
         N           26.013423810000   -33.280898730000    11.257333650000    14.003074004430
         N           26.132286070000   -31.242991700000    12.794507370000    14.003074004430
         H           28.686586540000   -35.681808700000    10.539303290000     1.007825032230
         H           31.581223100000   -33.239269960000    13.294440800000     1.007825032230
         H           28.644799030000   -29.526220940000    15.199077110000     1.007825032230
         H           24.669877850000   -30.433014640000    13.180272690000     1.007825032230
         C           28.415122470000   -30.912816030000    13.823556220000    12.000000000000
         C           29.898114910000   -32.842488240000    12.933633750000    12.000000000000
         C           28.336809570000   -34.227656060000    11.341935800000    12.000000000000

  Running in c1 symmetry.

  Rotational constants: A =      0.09128  B =      0.00044  C =      0.00044 [cm^-1]
  Rotational constants: A =   2736.59009  B =     13.19178  C =     13.17561 [MHz]
  Nuclear repulsion =  166.628602819058415

  Charge       = 0
  Multiplicity = 1
  Electrons    = 36
  Nalpha       = 18
  Nbeta        = 18

  ==> Algorithm <==

  SCF Algorithm Type is DF.
  DIIS enabled.
  MOM disabled.
  Fractional occupation disabled.
  Guess Type is SAD.
  Energy threshold   = 1.00e-10
  Density threshold  = 1.00e-10
  Integral threshold = 1.00e-12

  ==> Primary Basis <==

  Basis Set: AUG-CC-PVDZ
    Blend: AUG-CC-PVDZ
    Number of shells: 130
    Number of basis functions: 302
    Number of Cartesian functions: 322
    Spherical Harmonics?: true
    Max angular momentum: 2

   => Loading Basis Set <=

    Name: (AUG-CC-PVDZ AUX)
    Role: JKFIT
    Keyword: DF_BASIS_SCF
    atoms 1-2, 10-11 entry N          line   212 file /theoryfs2/ds/csargent/miniconda3/envs/cle/share/psi4/basis/aug-cc-pvdz-jkfit.gbs 
    atoms 3-6, 12-15 entry H          line    70 file /theoryfs2/ds/csargent/miniconda3/envs/cle/share/psi4/basis/aug-cc-pvdz-jkfit.gbs 
    atoms 7-9, 16-18 entry C          line   154 file /theoryfs2/ds/csargent/miniconda3/envs/cle/share/psi4/basis/aug-cc-pvdz-jkfit.gbs 

  ==> Integral Setup <==

  ==> DiskDFJK: Density-Fitted J/K Matrices <==

    J tasked:                  Yes
    K tasked:                  Yes
    wK tasked:                  No
    OpenMP threads:              6
    Integrals threads:           6
    Memory [MiB]:             5006
    Algorithm:                Core
    Integral Cache:           LOAD
    Schwarz Cutoff:          1E-12
    Fitting Condition:       1E-10

   => Auxiliary Basis Set <=

  Basis Set: (AUG-CC-PVDZ AUX)
    Blend: AUG-CC-PVDZ-JKFIT
    Number of shells: 376
    Number of basis functions: 1116
    Number of Cartesian functions: 1290
    Spherical Harmonics?: true
    Max angular momentum: 3

  Minimum eigenvalue in the overlap matrix is 3.0324469301E-05.
  Reciprocal condition number of the overlap matrix is 2.4867199381E-06.
    Using symmetric orthogonalization.

  ==> Pre-Iterations <==

  SCF Guess: Superposition of Atomic Densities via on-the-fly atomic UHF (no occupation information).

   -------------------------
    Irrep   Nso     Nmo    
   -------------------------
     A        302     302 
   -------------------------
    Total     302     302
   -------------------------

  ==> Iterations <==

                           Total Energy        Delta E     RMS |[F,P]|

   @DF-RHF iter SAD:  -224.72250854813535   -2.24723e+02   0.00000e+00 
   @DF-RHF iter   1:  -224.63556596118534    8.69426e-02   1.50490e-03 DIIS
   @DF-RHF iter   2:  -224.73993304878343   -1.04367e-01   6.88620e-04 DIIS
   @DF-RHF iter   3:  -224.76085080217109   -2.09178e-02   1.48614e-04 DIIS
   @DF-RHF iter   4:  -224.76223500083498   -1.38420e-03   6.05151e-05 DIIS
   @DF-RHF iter   5:  -224.76241324533771   -1.78245e-04   1.19848e-05 DIIS
   @DF-RHF iter   6:  -224.76243017848711   -1.69331e-05   4.96323e-06 DIIS
   @DF-RHF iter   7:  -224.76243412633036   -3.94784e-06   2.18627e-06 DIIS
   @DF-RHF iter   8:  -224.76243488586962   -7.59539e-07   1.01631e-06 DIIS
   @DF-RHF iter   9:  -224.76243505337396   -1.67504e-07   2.83280e-07 DIIS
   @DF-RHF iter  10:  -224.76243506219194   -8.81798e-09   8.55270e-08 DIIS
   @DF-RHF iter  11:  -224.76243506288125   -6.89312e-10   1.99678e-08 DIIS
   @DF-RHF iter  12:  -224.76243506292741   -4.61569e-11   5.80973e-09 DIIS
   @DF-RHF iter  13:  -224.76243506293179   -4.37694e-12   2.83582e-09 DIIS
   @DF-RHF iter  14:  -224.76243506293261   -8.24230e-13   9.79833e-10 DIIS
   @DF-RHF iter  15:  -224.76243506293261    0.00000e+00   4.16538e-10 DIIS
   @DF-RHF iter  16:  -224.76243506293264   -2.84217e-14   1.25808e-10 DIIS
   @DF-RHF iter  17:  -224.76243506293238    2.55795e-13   4.47601e-11 DIIS
  Energy and wave function converged.


  ==> Post-Iterations <==

    Orbital Energies [Eh]
    ---------------------

    Doubly Occupied:                                                      

       1A    -15.636233     2A    -15.592291     3A    -11.279903  
       4A    -11.237759     5A    -11.209884     6A     -1.387001  
       7A     -1.121894     8A     -1.066928     9A     -0.872759  
      10A     -0.837039    11A     -0.757272    12A     -0.645745  
      13A     -0.620828    14A     -0.609177    15A     -0.583905  
      16A     -0.461413    17A     -0.370715    18A     -0.346055  

    Virtual:                                                              

      19A      0.022637    20A      0.030764    21A      0.039998  
      22A      0.042369    23A      0.044090    24A      0.049158  
      25A      0.063519    26A      0.065811    27A      0.083938  
      28A      0.090716    29A      0.098930    30A      0.101001  
      31A      0.104028    32A      0.117186    33A      0.118333  
      34A      0.125819    35A      0.126272    36A      0.128214  
      37A      0.133070    38A      0.133342    39A      0.134093  
      40A      0.138399    41A      0.141487    42A      0.156889  
      43A      0.158551    44A      0.164594    45A      0.165911  
      46A      0.171081    47A      0.178407    48A      0.179144  
      49A      0.195447    50A      0.196041    51A      0.201445  
      52A      0.204806    53A      0.206166    54A      0.222900  
      55A      0.225111    56A      0.228242    57A      0.235525  
      58A      0.240240    59A      0.243627    60A      0.244965  
      61A      0.264063    62A      0.270940    63A      0.271138  
      64A      0.279081    65A      0.301024    66A      0.321915  
      67A      0.325138    68A      0.340054    69A      0.352355  
      70A      0.355359    71A      0.366513    72A      0.372894  
      73A      0.374909    74A      0.383712    75A      0.396062  
      76A      0.402744    77A      0.415005    78A      0.427436  
      79A      0.432044    80A      0.432131    81A      0.441171  
      82A      0.442311    83A      0.443379    84A      0.453414  
      85A      0.455965    86A      0.457409    87A      0.459816  
      88A      0.461853    89A      0.478656    90A      0.498544  
      91A      0.508693    92A      0.509690    93A      0.519374  
      94A      0.521953    95A      0.533087    96A      0.538047  
      97A      0.541569    98A      0.559300    99A      0.568758  
     100A      0.571833   101A      0.574428   102A      0.586322  
     103A      0.590547   104A      0.595165   105A      0.602431  
     106A      0.613370   107A      0.620974   108A      0.621230  
     109A      0.633513   110A      0.646111   111A      0.655304  
     112A      0.676168   113A      0.690830   114A      0.698039  
     115A      0.700384   116A      0.707805   117A      0.719430  
     118A      0.721648   119A      0.725121   120A      0.735653  
     121A      0.745375   122A      0.747717   123A      0.758643  
     124A      0.773300   125A      0.781476   126A      0.789699  
     127A      0.798088   128A      0.814447   129A      0.820935  
     130A      0.828513   131A      0.838238   132A      0.848382  
     133A      0.851944   134A      0.855085   135A      0.871027  
     136A      0.881076   137A      0.881397   138A      0.888762  
     139A      0.895688   140A      0.906950   141A      0.916140  
     142A      0.924803   143A      0.942599   144A      0.952100  
     145A      0.978204   146A      0.984853   147A      0.997191  
     148A      1.011170   149A      1.024218   150A      1.030260  
     151A      1.046624   152A      1.051663   153A      1.066503  
     154A      1.071155   155A      1.081050   156A      1.100853  
     157A      1.108218   158A      1.128099   159A      1.134152  
     160A      1.150240   161A      1.158833   162A      1.166354  
     163A      1.175167   164A      1.185040   165A      1.220538  
     166A      1.221755   167A      1.237084   168A      1.268057  
     169A      1.269573   170A      1.293789   171A      1.303390  
     172A      1.311431   173A      1.315218   174A      1.340769  
     175A      1.365802   176A      1.381922   177A      1.401039  
     178A      1.435061   179A      1.444786   180A      1.474706  
     181A      1.493289   182A      1.507095   183A      1.512021  
     184A      1.526136   185A      1.560976   186A      1.590889  
     187A      1.608679   188A      1.637435   189A      1.669494  
     190A      1.676793   191A      1.688974   192A      1.703636  
     193A      1.723957   194A      1.749249   195A      1.764367  
     196A      1.805025   197A      1.875589   198A      1.932406  
     199A      1.943562   200A      1.988139   201A      2.021453  
     202A      2.041185   203A      2.057662   204A      2.088810  
     205A      2.109165   206A      2.134954   207A      2.144708  
     208A      2.168232   209A      2.189999   210A      2.200828  
     211A      2.216746   212A      2.230454   213A      2.233976  
     214A      2.261978   215A      2.275832   216A      2.277883  
     217A      2.289374   218A      2.307637   219A      2.335808  
     220A      2.360646   221A      2.380711   222A      2.389121  
     223A      2.393758   224A      2.394635   225A      2.435199  
     226A      2.443980   227A      2.464942   228A      2.478438  
     229A      2.500020   230A      2.513679   231A      2.531785  
     232A      2.548924   233A      2.570195   234A      2.584820  
     235A      2.631444   236A      2.642959   237A      2.667613  
     238A      2.703102   239A      2.718991   240A      2.733013  
     241A      2.826807   242A      2.828028   243A      2.834707  
     244A      2.869873   245A      2.890136   246A      2.901543  
     247A      2.918563   248A      2.945260   249A      2.999195  
     250A      3.028172   251A      3.055311   252A      3.089933  
     253A      3.092440   254A      3.122703   255A      3.140145  
     256A      3.182079   257A      3.189011   258A      3.222030  
     259A      3.254240   260A      3.289303   261A      3.297913  
     262A      3.355861   263A      3.380219   264A      3.395704  
     265A      3.423569   266A      3.448415   267A      3.487272  
     268A      3.497624   269A      3.520764   270A      3.633679  
     271A      3.667050   272A      3.686295   273A      3.735730  
     274A      3.770177   275A      3.851235   276A      3.889250  
     277A      3.964510   278A      4.035607   279A      4.094856  
     280A      4.209312   281A      4.244188   282A      4.448545  
     283A      4.463032   284A      4.658532   285A      4.708135  
     286A      4.750049   287A      4.810887   288A      4.994980  
     289A      5.076910   290A      5.241561   291A      5.531359  
     292A      5.669052   293A      5.826950   294A      6.106811  
     295A      6.318461   296A      6.708515   297A      6.967972  
     298A     18.111321   299A     18.647991   300A     19.373714  
     301A     25.245663   302A     25.705043  

    Final Occupation by Irrep:
              A 
    DOCC [    18 ]

  @DF-RHF Final Energy:  -224.76243506293238

   => Energetics <=

    Nuclear Repulsion Energy =            166.6286028190584148
    One-Electron Energy =                -633.5084734248091536
    Two-Electron Energy =                 242.1174355428183560
    Total Energy =                       -224.7624350629323828

Computation Completed


Properties will be evaluated at   0.000000,   0.000000,   0.000000 [a0]

Properties computed using the SCF density matrix

  Nuclear Dipole Moment: [e a0]
     X:   998.5027      Y: -1168.4453      Z:   449.1707

  Electronic Dipole Moment: [e a0]
     X:  -998.2118      Y:  1169.0093      Z:  -448.4676

  Dipole Moment: [e a0]
     X:     0.2909      Y:     0.5640      Z:     0.7031     Total:     0.9472

  Dipole Moment: [D]
     X:     0.7394      Y:     1.4336      Z:     1.7871     Total:     2.4074


*** tstop() called on ds1 at Mon Oct  4 15:26:29 2021
Module time:
	user time   =      15.98 seconds =       0.27 minutes
	system time =       0.33 seconds =       0.01 minutes
	total time  =          3 seconds =       0.05 minutes
Total time:
	user time   =      54.50 seconds =       0.91 minutes
	system time =       1.24 seconds =       0.02 minutes
	total time  =         12 seconds =       0.20 minutes
  Constructing Basis Sets for SAPT...

   => Loading Basis Set <=

    Name: (AUG-CC-PVDZ AUX)
    Role: RIFIT
    Keyword: DF_BASIS_SAPT
    atoms 1-2, 10-11 entry N          line   158 file /theoryfs2/ds/csargent/miniconda3/envs/cle/share/psi4/basis/aug-cc-pvdz-ri.gbs 
    atoms 3-6, 12-15 entry H          line    30 file /theoryfs2/ds/csargent/miniconda3/envs/cle/share/psi4/basis/aug-cc-pvdz-ri.gbs 
    atoms 7-9, 16-18 entry C          line   112 file /theoryfs2/ds/csargent/miniconda3/envs/cle/share/psi4/basis/aug-cc-pvdz-ri.gbs 


  //>>>>>>>>>>>>>>>>>>>>>>>>>>>>>>>>>>>//
  //               SAPT0               //
  //<<<<<<<<<<<<<<<<<<<<<<<<<<<<<<<<<<<//


*** tstart() called on ds1
*** at Mon Oct  4 15:26:29 2021

        SAPT0  
    Ed Hohenstein
     6 June 2009

      Orbital Information
  --------------------------
    NSO        =       302
    NMO        =       302
    NRI        =       904
    NOCC A     =        18
    NOCC B     =        18
    FOCC A     =         5
    FOCC B     =         5
    NVIR A     =       284
    NVIR B     =       284

    Elst10,r            =     0.000011911094 [Eh]
    Exch10              =     0.000000000000 [Eh]
    Exch10 (S^2)        =     0.000000000000 [Eh]

    Iter     Energy [mEh]          dE [mEh]         Residual      Time [s]
       1      -0.00000923       0.000009228       0.033743453             0
       2      -0.00000837      -0.000000861       0.007524580             0
       3      -0.00000910       0.000000735       0.002691073             1
       4      -0.00000920       0.000000093       0.000771751             1
       5      -0.00000918      -0.000000013       0.000396138             1
       6      -0.00000917      -0.000000010       0.000144314             1
       7      -0.00000917      -0.000000000       0.000057023             1
       8      -0.00000917       0.000000001       0.000025866             1
       9      -0.00000917       0.000000000       0.000007087             1
      10      -0.00000917      -0.000000000       0.000001767             1
      11      -0.00000917       0.000000000       0.000000803             2

    CHF Iterations converged


    Iter     Energy [mEh]          dE [mEh]         Residual      Time [s]
       1      -0.00001370       0.000013703       0.040765920             0
       2      -0.00001241      -0.000001288       0.009914698             0
       3      -0.00001333       0.000000914       0.004713543             0
       4      -0.00001368       0.000000346       0.001042813             0
       5      -0.00001362      -0.000000054       0.000637677             0
       6      -0.00001361      -0.000000010       0.000220327             0
       7      -0.00001362       0.000000005       0.000086297             1
       8      -0.00001362       0.000000002       0.000030019             1
       9      -0.00001362      -0.000000000       0.000010247             1
      10      -0.00001362      -0.000000000       0.000002851             1
      11      -0.00001362       0.000000000       0.000001273             1
      12      -0.00001362       0.000000000       0.000000410             1

    CHF Iterations converged

    Ind20,r (A<-B)      =    -0.000000009173 [Eh]
    Ind20,r (B<-A)      =    -0.000000013617 [Eh]
    Ind20,r             =    -0.000000022790 [Eh]
    Exch-Ind20,r (A<-B) =     0.000000000000 [Eh]
    Exch-Ind20,r (B<-A) =     0.000000000000 [Eh]
    Exch-Ind20,r        =     0.000000000000 [Eh]
    Disp20              =    -0.000000306747 [Eh]
    Disp20 (SS)         =    -0.000000153374 [Eh]
    Disp20 (OS)         =    -0.000000153374 [Eh]
    Exch-Disp20         =     0.000000000000 [Eh]
    Exch-Disp20 (SS)    =     0.000000000000 [Eh]
    Exch-Disp20 (OS)    =     0.000000000000 [Eh]

    SAPT Results 
  --------------------------------------------------------------------------------------------------------
    Electrostatics                  0.01191109 [mEh]       0.00747432 [kcal/mol]       0.03127257 [kJ/mol]
      Elst10,r                      0.01191109 [mEh]       0.00747432 [kcal/mol]       0.03127257 [kJ/mol]

    Exchange                        0.00000000 [mEh]       0.00000000 [kcal/mol]       0.00000000 [kJ/mol]
      Exch10                        0.00000000 [mEh]       0.00000000 [kcal/mol]       0.00000000 [kJ/mol]
      Exch10(S^2)                   0.00000000 [mEh]       0.00000000 [kcal/mol]       0.00000000 [kJ/mol]

    Induction                       0.00002226 [mEh]       0.00001397 [kcal/mol]       0.00005844 [kJ/mol]
      Ind20,r                      -0.00002279 [mEh]      -0.00001430 [kcal/mol]      -0.00005984 [kJ/mol]
      Exch-Ind20,r                  0.00000000 [mEh]       0.00000000 [kcal/mol]       0.00000000 [kJ/mol]
      delta HF,r (2)                0.00004505 [mEh]       0.00002827 [kcal/mol]       0.00011828 [kJ/mol]

    Dispersion                     -0.00030675 [mEh]      -0.00019249 [kcal/mol]      -0.00080536 [kJ/mol]
      Disp20                       -0.00030675 [mEh]      -0.00019249 [kcal/mol]      -0.00080536 [kJ/mol]
      Exch-Disp20                   0.00000000 [mEh]       0.00000000 [kcal/mol]       0.00000000 [kJ/mol]
      Disp20 (SS)                  -0.00015337 [mEh]      -0.00009624 [kcal/mol]      -0.00040268 [kJ/mol]
      Disp20 (OS)                  -0.00015337 [mEh]      -0.00009624 [kcal/mol]      -0.00040268 [kJ/mol]
      Exch-Disp20 (SS)              0.00000000 [mEh]       0.00000000 [kcal/mol]       0.00000000 [kJ/mol]
      Exch-Disp20 (OS)              0.00000000 [mEh]       0.00000000 [kcal/mol]       0.00000000 [kJ/mol]

  Total HF                          0.01193335 [mEh]       0.00748829 [kcal/mol]       0.03133101 [kJ/mol]
  Total SAPT0                       0.01162661 [mEh]       0.00729581 [kcal/mol]       0.03052565 [kJ/mol]

  Special recipe for scaled SAPT0 (see Manual):
    Electrostatics sSAPT0           0.01191109 [mEh]       0.00747432 [kcal/mol]       0.03127257 [kJ/mol]
    Exchange sSAPT0                 0.00000000 [mEh]       0.00000000 [kcal/mol]       0.00000000 [kJ/mol]
    Induction sSAPT0                0.00002226 [mEh]       0.00001397 [kcal/mol]       0.00005844 [kJ/mol]
    Dispersion sSAPT0              -0.00030675 [mEh]      -0.00019249 [kcal/mol]      -0.00080536 [kJ/mol]
  Total sSAPT0                      0.01162661 [mEh]       0.00729581 [kcal/mol]       0.03052565 [kJ/mol]
  --------------------------------------------------------------------------------------------------------

*** tstop() called on ds1 at Mon Oct  4 15:26:39 2021
Module time:
	user time   =      45.18 seconds =       0.75 minutes
	system time =       3.93 seconds =       0.07 minutes
	total time  =         10 seconds =       0.17 minutes
Total time:
	user time   =     100.31 seconds =       1.67 minutes
	system time =       5.18 seconds =       0.09 minutes
	total time  =         22 seconds =       0.37 minutes


Warning! sapt0 does not have an associated derived wavefunction.The returned wavefunction is the dimer SCF wavefunction.


    Psi4 stopped on: Monday, 04 October 2021 03:26PM
    Psi4 wall time for execution: 0:00:21.35

*** Psi4 exiting successfully. Buy a developer a beer!
