
    -----------------------------------------------------------------------
          Psi4: An Open-Source Ab Initio Electronic Structure Package
                               Psi4 1.4rc3 

                         Git: Rev {HEAD} 080dba6 


    D. G. A. Smith, L. A. Burns, A. C. Simmonett, R. M. Parrish,
    M. C. Schieber, R. Galvelis, P. Kraus, H. Kruse, R. Di Remigio,
    A. Alenaizan, A. M. James, S. Lehtola, J. P. Misiewicz, M. Scheurer,
    R. A. Shaw, J. B. Schriber, Y. Xie, Z. L. Glick, D. A. Sirianni,
    J. S. O'Brien, J. M. Waldrop, A. Kumar, E. G. Hohenstein,
    B. P. Pritchard, B. R. Brooks, H. F. Schaefer III, A. Yu. Sokolov,
    K. Patkowski, A. E. DePrince III, U. Bozkaya, R. A. King,
    F. A. Evangelista, J. M. Turney, T. D. Crawford, C. D. Sherrill,
    J. Chem. Phys. 152(18) 184108 (2020). https://doi.org/10.1063/5.0006002

                            Additional Code Authors
    E. T. Seidl, C. L. Janssen, E. F. Valeev, M. L. Leininger,
    J. F. Gonthier, R. M. Richard, H. R. McAlexander, M. Saitow, X. Wang,
    P. Verma, and M. H. Lechner

             Previous Authors, Complete List of Code Contributors,
                       and Citations for Specific Modules
    https://github.com/psi4/psi4/blob/master/codemeta.json
    https://github.com/psi4/psi4/graphs/contributors
    http://psicode.org/psi4manual/master/introduction.html#citing-psifour

    -----------------------------------------------------------------------


    Psi4 started on: Monday, 04 October 2021 01:26PM

    Process ID: 7787
    Host:       ds1
    PSIDATADIR: /theoryfs2/ds/csargent/miniconda3/envs/cle/share/psi4
    Memory:     500.0 MiB
    Threads:    6
    
  ==> Input File <==

--------------------------------------------------------------------------
# PSI4 file produced by CrystaLattE

# Generated from:               pyrazole.xyz
# Psithon input for N-mer:      2mer-0+130
# Number of atoms per monomer:  [9, 9]
# Number of replicas:           1
# COM priority:                 3.415490640472e-05
# Minimum COM separations:      16.310 
# Separation priority:          7.244197585420e-05
# Minimum monomer separations:  12.694 
# Cutoff priority:              3.019861668430e-06
# Nuclear repulsion energy:     375.502726786856

memory 7 GB

molecule Dimer_0_130 {
  N            6.27981210      -4.25303372       0.19313865 
  N            6.06870777      -2.28125697       1.80544317 
  H            3.66871156      -5.64628941      -1.96684001 
  H            0.69034521      -2.37545694      -0.42864236 
  H            3.35917442       0.17650601       3.09265017 
  H            7.35266782      -1.99461311       2.90680702 
  C            3.77952586      -1.21508453       1.76858172 
  C            2.38242998      -2.55505538       0.04607681 
  C            4.01771468      -4.38410490      -0.88761863 
--
  N          -20.41714710      -2.29338878     -20.74045397 
  N          -20.29828483      -4.33129582     -19.20328025 
  H          -17.74398436       0.10752118     -21.45848432 
  H          -14.84934780      -2.33501756     -18.70334682 
  H          -17.78577187      -6.04806657     -16.79871051 
  H          -21.76069305      -5.14127288     -18.81751493 
  C          -18.01544843      -4.66147149     -18.17423140 
  C          -16.53245600      -2.73179927     -19.06415387 
  C          -18.09376133      -1.34663146     -20.65585182 
units = au
no_com
no_reorient
}

set {
  e_convergence 10
  d_convergence 10
  scf_type df
  mp2_type df
  cc_type df
  freeze_core true
}

energy('sapt0/aug-cc-pvdz')

--------------------------------------------------------------------------

  Memory set to   6.519 GiB by Python driver.

Scratch directory: /scratch/csargent/psi4.7158.66302/

Scratch directory: /scratch/csargent/psi4.7158.66302/

  //>>>>>>>>>>>>>>>>>>>>>>>>>>>>>>>>>>>//
  //              Dimer HF             //
  //<<<<<<<<<<<<<<<<<<<<<<<<<<<<<<<<<<<//


*** tstart() called on ds1
*** at Mon Oct  4 13:26:18 2021

   => Loading Basis Set <=

    Name: AUG-CC-PVDZ
    Role: ORBITAL
    Keyword: BASIS
    atoms 1-2, 10-11 entry N          line   218 file /theoryfs2/ds/csargent/miniconda3/envs/cle/share/psi4/basis/aug-cc-pvdz.gbs 
    atoms 3-6, 12-15 entry H          line    40 file /theoryfs2/ds/csargent/miniconda3/envs/cle/share/psi4/basis/aug-cc-pvdz.gbs 
    atoms 7-9, 16-18 entry C          line   182 file /theoryfs2/ds/csargent/miniconda3/envs/cle/share/psi4/basis/aug-cc-pvdz.gbs 


         ---------------------------------------------------------
                                   SCF
               by Justin Turney, Rob Parrish, Andy Simmonett
                          and Daniel G. A. Smith
                              RHF Reference
                        6 Threads,   6675 MiB Core
         ---------------------------------------------------------

  ==> Geometry <==

    Molecular point group: c1
    Full point group: C1

    Geometry (in Bohr), charge = 0, multiplicity = 1:

       Center              X                  Y                   Z               Mass       
    ------------   -----------------  -----------------  -----------------  -----------------
         N            6.279812100000    -4.253033720000     0.193138650000    14.003074004430
         N            6.068707770000    -2.281256970000     1.805443170000    14.003074004430
         H            3.668711560000    -5.646289410000    -1.966840010000     1.007825032230
         H            0.690345210000    -2.375456940000    -0.428642360000     1.007825032230
         H            3.359174420000     0.176506010000     3.092650170000     1.007825032230
         H            7.352667820000    -1.994613110000     2.906807020000     1.007825032230
         C            3.779525860000    -1.215084530000     1.768581720000    12.000000000000
         C            2.382429980000    -2.555055380000     0.046076810000    12.000000000000
         C            4.017714680000    -4.384104900000    -0.887618630000    12.000000000000
         N          -20.417147100000    -2.293388780000   -20.740453970000    14.003074004430
         N          -20.298284830000    -4.331295820000   -19.203280250000    14.003074004430
         H          -17.743984360000     0.107521180000   -21.458484320000     1.007825032230
         H          -14.849347800000    -2.335017560000   -18.703346820000     1.007825032230
         H          -17.785771870000    -6.048066570000   -16.798710510000     1.007825032230
         H          -21.760693050000    -5.141272880000   -18.817514930000     1.007825032230
         C          -18.015448430000    -4.661471490000   -18.174231400000    12.000000000000
         C          -16.532456000000    -2.731799270000   -19.064153870000    12.000000000000
         C          -18.093761330000    -1.346631460000   -20.655851820000    12.000000000000

  Running in c1 symmetry.

  Rotational constants: A =      0.03550  B =      0.00116  C =      0.00113 [cm^-1]
  Rotational constants: A =   1064.17945  B =     34.84539  C =     33.97452 [MHz]
  Nuclear repulsion =  375.502726745439645

  Charge       = 0
  Multiplicity = 1
  Electrons    = 72
  Nalpha       = 36
  Nbeta        = 36

  ==> Algorithm <==

  SCF Algorithm Type is DF.
  DIIS enabled.
  MOM disabled.
  Fractional occupation disabled.
  Guess Type is SAD.
  Energy threshold   = 1.00e-10
  Density threshold  = 1.00e-10
  Integral threshold = 1.00e-12

  ==> Primary Basis <==

  Basis Set: AUG-CC-PVDZ
    Blend: AUG-CC-PVDZ
    Number of shells: 130
    Number of basis functions: 302
    Number of Cartesian functions: 322
    Spherical Harmonics?: true
    Max angular momentum: 2

   => Loading Basis Set <=

    Name: (AUG-CC-PVDZ AUX)
    Role: JKFIT
    Keyword: DF_BASIS_SCF
    atoms 1-2, 10-11 entry N          line   212 file /theoryfs2/ds/csargent/miniconda3/envs/cle/share/psi4/basis/aug-cc-pvdz-jkfit.gbs 
    atoms 3-6, 12-15 entry H          line    70 file /theoryfs2/ds/csargent/miniconda3/envs/cle/share/psi4/basis/aug-cc-pvdz-jkfit.gbs 
    atoms 7-9, 16-18 entry C          line   154 file /theoryfs2/ds/csargent/miniconda3/envs/cle/share/psi4/basis/aug-cc-pvdz-jkfit.gbs 

  ==> Integral Setup <==

  ==> DiskDFJK: Density-Fitted J/K Matrices <==

    J tasked:                  Yes
    K tasked:                  Yes
    wK tasked:                  No
    OpenMP threads:              6
    Integrals threads:           6
    Memory [MiB]:             5006
    Algorithm:                Core
    Integral Cache:           SAVE
    Schwarz Cutoff:          1E-12
    Fitting Condition:       1E-10

   => Auxiliary Basis Set <=

  Basis Set: (AUG-CC-PVDZ AUX)
    Blend: AUG-CC-PVDZ-JKFIT
    Number of shells: 376
    Number of basis functions: 1116
    Number of Cartesian functions: 1290
    Spherical Harmonics?: true
    Max angular momentum: 3

  Minimum eigenvalue in the overlap matrix is 3.0324384251E-05.
  Reciprocal condition number of the overlap matrix is 2.4867114777E-06.
    Using symmetric orthogonalization.

  ==> Pre-Iterations <==

  SCF Guess: Superposition of Atomic Densities via on-the-fly atomic UHF (no occupation information).

   -------------------------
    Irrep   Nso     Nmo    
   -------------------------
     A        302     302 
   -------------------------
    Total     302     302
   -------------------------

  ==> Iterations <==

                           Total Energy        Delta E     RMS |[F,P]|

   @DF-RHF iter SAD:  -449.44445655831208   -4.49444e+02   0.00000e+00 
   @DF-RHF iter   1:  -449.27108843454863    1.73368e-01   2.12804e-03 DIIS
   @DF-RHF iter   2:  -449.47978929105500   -2.08701e-01   9.73629e-04 DIIS
   @DF-RHF iter   3:  -449.52160360104756   -4.18143e-02   2.10199e-04 DIIS
   @DF-RHF iter   4:  -449.52437171071921   -2.76811e-03   8.56501e-05 DIIS
   @DF-RHF iter   5:  -449.52472865948204   -3.56949e-04   1.69675e-05 DIIS
   @DF-RHF iter   6:  -449.52476255765828   -3.38982e-05   7.02955e-06 DIIS
   @DF-RHF iter   7:  -449.52477045347445   -7.89582e-06   3.12033e-06 DIIS
   @DF-RHF iter   8:  -449.52477198784544   -1.53437e-06   1.43906e-06 DIIS
   @DF-RHF iter   9:  -449.52477232627024   -3.38425e-07   4.02205e-07 DIIS
   @DF-RHF iter  10:  -449.52477234410890   -1.78387e-08   1.20637e-07 DIIS
   @DF-RHF iter  11:  -449.52477234548809   -1.37919e-09   2.82576e-08 DIIS
   @DF-RHF iter  12:  -449.52477234558199   -9.39053e-11   8.23298e-09 DIIS
   @DF-RHF iter  13:  -449.52477234559012   -8.12861e-12   4.01904e-09 DIIS
   @DF-RHF iter  14:  -449.52477234559177   -1.64846e-12   1.38907e-09 DIIS
   @DF-RHF iter  15:  -449.52477234559223   -4.54747e-13   5.90875e-10 DIIS
   @DF-RHF iter  16:  -449.52477234559285   -6.25278e-13   1.79697e-10 DIIS
   @DF-RHF iter  17:  -449.52477234559296   -1.13687e-13   6.52233e-11 DIIS
  Energy and wave function converged.


  ==> Post-Iterations <==

    Orbital Energies [Eh]
    ---------------------

    Doubly Occupied:                                                      

       1A    -15.636844     2A    -15.636288     3A    -15.592945  
       4A    -15.592345     5A    -11.280524     6A    -11.279959  
       7A    -11.238436     8A    -11.237811     9A    -11.210547  
      10A    -11.209937    11A     -1.387545    12A     -1.387056  
      13A     -1.122530    14A     -1.121948    15A     -1.067539  
      16A     -1.066982    17A     -0.873411    18A     -0.872812  
      19A     -0.837711    20A     -0.837092    21A     -0.757920  
      22A     -0.757329    23A     -0.646391    24A     -0.645798  
      25A     -0.621489    26A     -0.620881    27A     -0.609761  
      28A     -0.609232    29A     -0.584560    30A     -0.583960  
      31A     -0.462030    32A     -0.461467    33A     -0.371362  
      34A     -0.370768    35A     -0.346681    36A     -0.346109  

    Virtual:                                                              

      37A      0.030235    38A      0.030676    39A      0.041234  
      40A      0.042527    41A      0.048535    42A      0.049136  
      43A      0.062661    44A      0.063665    45A      0.100436  
      46A      0.100925    47A      0.103393    48A      0.103986  
      49A      0.116458    50A      0.117135    51A      0.125664  
      52A      0.126222    53A      0.132268    54A      0.133106  
      55A      0.137680    56A      0.138365    57A      0.140750  
      58A      0.141424    59A      0.155256    60A      0.157520  
      61A      0.163953    62A      0.164740    63A      0.170463  
      64A      0.171032    65A      0.177668    66A      0.178507  
      67A      0.195505    68A      0.195986    69A      0.204201  
      70A      0.204742    71A      0.205561    72A      0.206115  
      73A      0.239594    74A      0.240185    75A      0.243017  
      76A      0.243574    77A      0.244324    78A      0.244924  
      79A      0.270497    80A      0.271084    81A      0.278498  
      82A      0.279049    83A      0.300295    84A      0.301055  
      85A      0.324553    86A      0.325085    87A      0.351734  
      88A      0.352301    89A      0.354660    90A      0.355315  
      91A      0.374266    92A      0.374848    93A      0.395440  
      94A      0.395976    95A      0.402108    96A      0.402690  
      97A      0.413483    98A      0.415837    99A      0.431435  
     100A      0.432206   101A      0.442735   102A      0.443330  
     103A      0.452768   104A      0.453364   105A      0.459155  
     106A      0.459756   107A      0.478035   108A      0.478602  
     109A      0.497873   110A      0.498489   111A      0.508025  
     112A      0.508643   113A      0.521281   114A      0.521907  
     115A      0.540903   116A      0.541518   117A      0.573807  
     118A      0.574374   119A      0.585681   120A      0.586260  
     121A      0.589855   122A      0.590535   123A      0.601791  
     124A      0.602379   125A      0.620301   126A      0.620926  
     127A      0.645455   128A      0.646064   129A      0.654614  
     130A      0.655255   131A      0.675503   132A      0.676115  
     133A      0.697377   134A      0.697993   135A      0.699743  
     136A      0.700331   137A      0.721023   138A      0.721599  
     139A      0.724397   140A      0.725163   141A      0.747065  
     142A      0.747661   143A      0.757927   144A      0.758607  
     145A      0.772663   146A      0.773247   147A      0.780865  
     148A      0.781419   149A      0.827856   150A      0.828464  
     151A      0.837591   152A      0.838186   153A      0.847725  
     154A      0.848355   155A      0.880587   156A      0.881522  
     157A      0.888127   158A      0.888716   159A      0.906302  
     160A      0.906898   161A      0.924188   162A      0.924752  
     163A      0.941946   164A      0.942547   165A      0.977557  
     166A      0.978149   167A      0.984208   168A      0.984803  
     169A      1.010523   170A      1.011117   171A      1.045994  
     172A      1.046572   173A      1.065853   174A      1.066465  
     175A      1.100231   176A      1.100812   177A      1.127372  
     178A      1.128088   179A      1.133568   180A      1.134101  
     181A      1.149589   182A      1.150183   183A      1.174508  
     184A      1.175118   185A      1.219911   186A      1.220487  
     187A      1.268903   188A      1.269540   189A      1.302701  
     190A      1.303349   191A      1.310757   192A      1.311400  
     193A      1.365116   194A      1.365819   195A      1.400383  
     196A      1.400990   197A      1.474076   198A      1.474654  
     199A      1.511406   200A      1.511964   201A      1.525481  
     202A      1.526084   203A      1.560341   204A      1.560926  
     205A      1.590235   206A      1.590840   207A      1.608016  
     208A      1.608630   209A      1.636726   210A      1.637437  
     211A      1.668818   212A      1.669444   213A      1.703000  
     214A      1.703579   215A      1.723315   216A      1.723902  
     217A      1.748568   218A      1.749196   219A      1.763737  
     220A      1.764314   221A      1.804407   222A      1.804973  
     223A      1.874996   224A      1.875536   225A      1.931750  
     226A      1.932353   227A      1.942894   228A      1.943509  
     229A      1.987320   230A      1.988191   231A      2.020806  
     232A      2.021403   233A      2.056961   234A      2.057617  
     235A      2.088207   236A      2.088757   237A      2.144052  
     238A      2.144654   239A      2.189365   240A      2.189946  
     241A      2.200174   242A      2.200775   243A      2.229823  
     244A      2.230404   245A      2.275156   246A      2.275782  
     247A      2.307005   248A      2.307584   249A      2.360066  
     250A      2.360592   251A      2.388498   252A      2.389067  
     253A      2.393210   254A      2.393723   255A      2.434630  
     256A      2.435144   257A      2.464360   258A      2.464886  
     259A      2.531102   260A      2.531806   261A      2.569593  
     262A      2.570141   263A      2.584107   264A      2.584765  
     265A      2.642333   266A      2.642905   267A      2.732405  
     268A      2.732960   269A      2.826196   270A      2.826756  
     271A      2.834110   272A      2.834655   273A      2.900964  
     274A      2.901487   275A      2.917982   276A      2.918508  
     277A      2.998514   278A      2.999149   279A      3.054699  
     280A      3.055256   281A      3.091731   282A      3.092387  
     283A      3.122097   284A      3.122650   285A      3.188237  
     286A      3.189019   287A      3.221361   288A      3.221977  
     289A      3.297224   290A      3.297861   291A      3.379498  
     292A      3.380275   293A      3.520095   294A      3.520720  
     295A      3.685910   296A      3.686243   297A      3.888707  
     298A      3.889198   299A      4.208797   300A      4.209267  
     301A      4.462520   302A      4.463050  

    Final Occupation by Irrep:
              A 
    DOCC [    36 ]

  @DF-RHF Final Energy:  -449.52477234559296

   => Energetics <=

    Nuclear Repulsion Energy =            375.5027267454396451
    One-Electron Energy =               -1351.4830026538097627
    Two-Electron Energy =                 526.4555035627771531
    Total Energy =                       -449.5247723455929645

Computation Completed


Properties will be evaluated at   0.000000,   0.000000,   0.000000 [a0]

Properties computed using the SCF density matrix

  Nuclear Dipole Moment: [e a0]
     X:  -510.4093      Y:  -216.7344      Z:  -679.5933

  Electronic Dipole Moment: [e a0]
     X:   510.2994      Y:   216.8026      Z:   680.8764

  Dipole Moment: [e a0]
     X:    -0.1099      Y:     0.0682      Z:     1.2831     Total:     1.2896

  Dipole Moment: [D]
     X:    -0.2792      Y:     0.1733      Z:     3.2612     Total:     3.2778


*** tstop() called on ds1 at Mon Oct  4 13:26:23 2021
Module time:
	user time   =      23.84 seconds =       0.40 minutes
	system time =       0.61 seconds =       0.01 minutes
	total time  =          5 seconds =       0.08 minutes
Total time:
	user time   =      23.84 seconds =       0.40 minutes
	system time =       0.61 seconds =       0.01 minutes
	total time  =          5 seconds =       0.08 minutes

  //>>>>>>>>>>>>>>>>>>>>>>>>>>>>>>>>>>>//
  //            Monomer A HF           //
  //<<<<<<<<<<<<<<<<<<<<<<<<<<<<<<<<<<<//


*** tstart() called on ds1
*** at Mon Oct  4 13:26:23 2021

   => Loading Basis Set <=

    Name: AUG-CC-PVDZ
    Role: ORBITAL
    Keyword: BASIS
    atoms 1-2, 10-11 entry N          line   218 file /theoryfs2/ds/csargent/miniconda3/envs/cle/share/psi4/basis/aug-cc-pvdz.gbs 
    atoms 3-6, 12-15 entry H          line    40 file /theoryfs2/ds/csargent/miniconda3/envs/cle/share/psi4/basis/aug-cc-pvdz.gbs 
    atoms 7-9, 16-18 entry C          line   182 file /theoryfs2/ds/csargent/miniconda3/envs/cle/share/psi4/basis/aug-cc-pvdz.gbs 


         ---------------------------------------------------------
                                   SCF
               by Justin Turney, Rob Parrish, Andy Simmonett
                          and Daniel G. A. Smith
                              RHF Reference
                        6 Threads,   6675 MiB Core
         ---------------------------------------------------------

  ==> Geometry <==

    Molecular point group: c1
    Full point group: C1

    Geometry (in Bohr), charge = 0, multiplicity = 1:

       Center              X                  Y                   Z               Mass       
    ------------   -----------------  -----------------  -----------------  -----------------
         N            6.279812100000    -4.253033720000     0.193138650000    14.003074004430
         N            6.068707770000    -2.281256970000     1.805443170000    14.003074004430
         H            3.668711560000    -5.646289410000    -1.966840010000     1.007825032230
         H            0.690345210000    -2.375456940000    -0.428642360000     1.007825032230
         H            3.359174420000     0.176506010000     3.092650170000     1.007825032230
         H            7.352667820000    -1.994613110000     2.906807020000     1.007825032230
         C            3.779525860000    -1.215084530000     1.768581720000    12.000000000000
         C            2.382429980000    -2.555055380000     0.046076810000    12.000000000000
         C            4.017714680000    -4.384104900000    -0.887618630000    12.000000000000
      Gh(N)         -20.417147100000    -2.293388780000   -20.740453970000    14.003074004430
      Gh(N)         -20.298284830000    -4.331295820000   -19.203280250000    14.003074004430
      Gh(H)         -17.743984360000     0.107521180000   -21.458484320000     1.007825032230
      Gh(H)         -14.849347800000    -2.335017560000   -18.703346820000     1.007825032230
      Gh(H)         -17.785771870000    -6.048066570000   -16.798710510000     1.007825032230
      Gh(H)         -21.760693050000    -5.141272880000   -18.817514930000     1.007825032230
      Gh(C)         -18.015448430000    -4.661471490000   -18.174231400000    12.000000000000
      Gh(C)         -16.532456000000    -2.731799270000   -19.064153870000    12.000000000000
      Gh(C)         -18.093761330000    -1.346631460000   -20.655851820000    12.000000000000

  Running in c1 symmetry.

  Rotational constants: A =      0.03550  B =      0.00116  C =      0.00113 [cm^-1]
  Rotational constants: A =   1064.17945  B =     34.84539  C =     33.97452 [MHz]
  Nuclear repulsion =  166.624056450327203

  Charge       = 0
  Multiplicity = 1
  Electrons    = 36
  Nalpha       = 18
  Nbeta        = 18

  ==> Algorithm <==

  SCF Algorithm Type is DF.
  DIIS enabled.
  MOM disabled.
  Fractional occupation disabled.
  Guess Type is SAD.
  Energy threshold   = 1.00e-10
  Density threshold  = 1.00e-10
  Integral threshold = 1.00e-12

  ==> Primary Basis <==

  Basis Set: AUG-CC-PVDZ
    Blend: AUG-CC-PVDZ
    Number of shells: 130
    Number of basis functions: 302
    Number of Cartesian functions: 322
    Spherical Harmonics?: true
    Max angular momentum: 2

   => Loading Basis Set <=

    Name: (AUG-CC-PVDZ AUX)
    Role: JKFIT
    Keyword: DF_BASIS_SCF
    atoms 1-2, 10-11 entry N          line   212 file /theoryfs2/ds/csargent/miniconda3/envs/cle/share/psi4/basis/aug-cc-pvdz-jkfit.gbs 
    atoms 3-6, 12-15 entry H          line    70 file /theoryfs2/ds/csargent/miniconda3/envs/cle/share/psi4/basis/aug-cc-pvdz-jkfit.gbs 
    atoms 7-9, 16-18 entry C          line   154 file /theoryfs2/ds/csargent/miniconda3/envs/cle/share/psi4/basis/aug-cc-pvdz-jkfit.gbs 

  ==> Integral Setup <==

  ==> DiskDFJK: Density-Fitted J/K Matrices <==

    J tasked:                  Yes
    K tasked:                  Yes
    wK tasked:                  No
    OpenMP threads:              6
    Integrals threads:           6
    Memory [MiB]:             5006
    Algorithm:                Core
    Integral Cache:           LOAD
    Schwarz Cutoff:          1E-12
    Fitting Condition:       1E-10

   => Auxiliary Basis Set <=

  Basis Set: (AUG-CC-PVDZ AUX)
    Blend: AUG-CC-PVDZ-JKFIT
    Number of shells: 376
    Number of basis functions: 1116
    Number of Cartesian functions: 1290
    Spherical Harmonics?: true
    Max angular momentum: 3

  Minimum eigenvalue in the overlap matrix is 3.0324384251E-05.
  Reciprocal condition number of the overlap matrix is 2.4867114777E-06.
    Using symmetric orthogonalization.

  ==> Pre-Iterations <==

  SCF Guess: Superposition of Atomic Densities via on-the-fly atomic UHF (no occupation information).

   -------------------------
    Irrep   Nso     Nmo    
   -------------------------
     A        302     302 
   -------------------------
    Total     302     302
   -------------------------

  ==> Iterations <==

                           Total Energy        Delta E     RMS |[F,P]|

   @DF-RHF iter SAD:  -224.72194801384677   -2.24722e+02   0.00000e+00 
   @DF-RHF iter   1:  -224.63549170220546    8.64563e-02   1.50472e-03 DIIS
   @DF-RHF iter   2:  -224.73984613693656   -1.04354e-01   6.88462e-04 DIIS
   @DF-RHF iter   3:  -224.76075487682124   -2.09087e-02   1.48626e-04 DIIS
   @DF-RHF iter   4:  -224.76213932058710   -1.38444e-03   6.05310e-05 DIIS
   @DF-RHF iter   5:  -224.76231767533687   -1.78355e-04   1.19893e-05 DIIS
   @DF-RHF iter   6:  -224.76233463280585   -1.69575e-05   4.96772e-06 DIIS
   @DF-RHF iter   7:  -224.76233858884189   -3.95604e-06   2.18806e-06 DIIS
   @DF-RHF iter   8:  -224.76233934958435   -7.60742e-07   1.01700e-06 DIIS
   @DF-RHF iter   9:  -224.76233951722605   -1.67642e-07   2.83302e-07 DIIS
   @DF-RHF iter  10:  -224.76233952604699   -8.82093e-09   8.55547e-08 DIIS
   @DF-RHF iter  11:  -224.76233952673607   -6.89084e-10   1.99714e-08 DIIS
   @DF-RHF iter  12:  -224.76233952678228   -4.62137e-11   5.81092e-09 DIIS
   @DF-RHF iter  13:  -224.76233952678641   -4.12115e-12   2.83097e-09 DIIS
   @DF-RHF iter  14:  -224.76233952678729   -8.81073e-13   9.75190e-10 DIIS
   @DF-RHF iter  15:  -224.76233952678731   -2.84217e-14   4.15548e-10 DIIS
   @DF-RHF iter  16:  -224.76233952678774   -4.26326e-13   1.25997e-10 DIIS
   @DF-RHF iter  17:  -224.76233952678800   -2.55795e-13   4.47777e-11 DIIS
  Energy and wave function converged.


  ==> Post-Iterations <==

    Orbital Energies [Eh]
    ---------------------

    Doubly Occupied:                                                      

       1A    -15.636223     2A    -15.592313     3A    -11.279894  
       4A    -11.237784     5A    -11.209891     6A     -1.386922  
       7A     -1.121901     8A     -1.066898     9A     -0.872768  
      10A     -0.837061    11A     -0.757292    12A     -0.645746  
      13A     -0.620834    14A     -0.609140    15A     -0.583920  
      16A     -0.461404    17A     -0.370721    18A     -0.346048  

    Virtual:                                                              

      19A      0.022644    20A      0.030762    21A      0.039975  
      22A      0.042110    23A      0.044360    24A      0.049160  
      25A      0.063477    26A      0.065909    27A      0.083944  
      28A      0.090733    29A      0.098913    30A      0.101004  
      31A      0.104030    32A      0.117177    33A      0.118340  
      34A      0.125785    35A      0.126269    36A      0.128139  
      37A      0.132981    38A      0.133419    39A      0.134192  
      40A      0.138403    41A      0.141492    42A      0.156707  
      43A      0.158664    44A      0.164645    45A      0.166024  
      46A      0.171077    47A      0.178386    48A      0.179258  
      49A      0.195473    50A      0.196044    51A      0.201472  
      52A      0.204794    53A      0.206162    54A      0.222923  
      55A      0.225143    56A      0.228255    57A      0.235560  
      58A      0.240237    59A      0.243627    60A      0.244965  
      61A      0.264075    62A      0.270978    63A      0.271153  
      64A      0.279121    65A      0.301017    66A      0.321921  
      67A      0.325156    68A      0.340074    69A      0.352360  
      70A      0.355358    71A      0.366539    72A      0.372897  
      73A      0.374911    74A      0.383703    75A      0.396061  
      76A      0.402741    77A      0.415030    78A      0.427479  
      79A      0.432008    80A      0.432185    81A      0.441183  
      82A      0.442324    83A      0.443404    84A      0.453393  
      85A      0.455994    86A      0.457428    87A      0.459816  
      88A      0.461884    89A      0.478656    90A      0.498544  
      91A      0.508690    92A      0.509728    93A      0.519415  
      94A      0.521920    95A      0.533114    96A      0.538048  
      97A      0.541561    98A      0.559326    99A      0.568825  
     100A      0.571859   101A      0.574439   102A      0.586318  
     103A      0.590555   104A      0.595151   105A      0.602413  
     106A      0.613387   107A      0.620953   108A      0.621256  
     109A      0.633532   110A      0.646117   111A      0.655295  
     112A      0.676163   113A      0.690824   114A      0.698041  
     115A      0.700391   116A      0.707814   117A      0.719449  
     118A      0.721672   119A      0.725125   120A      0.735664  
     121A      0.745374   122A      0.747709   123A      0.758594  
     124A      0.773318   125A      0.781481   126A      0.789714  
     127A      0.798118   128A      0.814454   129A      0.820944  
     130A      0.828504   131A      0.838231   132A      0.848394  
     133A      0.851965   134A      0.855110   135A      0.871019  
     136A      0.881055   137A      0.881453   138A      0.888774  
     139A      0.895685   140A      0.906951   141A      0.916185  
     142A      0.924816   143A      0.942583   144A      0.952128  
     145A      0.978222   146A      0.984851   147A      0.997214  
     148A      1.011149   149A      1.024214   150A      1.030278  
     151A      1.046605   152A      1.051696   153A      1.066505  
     154A      1.071164   155A      1.081062   156A      1.100858  
     157A      1.108258   158A      1.128062   159A      1.134200  
     160A      1.150235   161A      1.158868   162A      1.166383  
     163A      1.175169   164A      1.185061   165A      1.220548  
     166A      1.221821   167A      1.237146   168A      1.268064  
     169A      1.269566   170A      1.293838   171A      1.303349  
     172A      1.311405   173A      1.315254   174A      1.340777  
     175A      1.365815   176A      1.381948   177A      1.401044  
     178A      1.435112   179A      1.444852   180A      1.474691  
     181A      1.493314   182A      1.507172   183A      1.512027  
     184A      1.526130   185A      1.560990   186A      1.590885  
     187A      1.608670   188A      1.637442   189A      1.669473  
     190A      1.676834   191A      1.689008   192A      1.703634  
     193A      1.723950   194A      1.749215   195A      1.764373  
     196A      1.805049   197A      1.875633   198A      1.932391  
     199A      1.943558   200A      1.988075   201A      2.021447  
     202A      2.041192   203A      2.057613   204A      2.088839  
     205A      2.109183   206A      2.134905   207A      2.144689  
     208A      2.168226   209A      2.190006   210A      2.200828  
     211A      2.216733   212A      2.230458   213A      2.233979  
     214A      2.261982   215A      2.275825   216A      2.277842  
     217A      2.289376   218A      2.307640   219A      2.335756  
     220A      2.360716   221A      2.380719   222A      2.389130  
     223A      2.393817   224A      2.394663   225A      2.435246  
     226A      2.443986   227A      2.464967   228A      2.478419  
     229A      2.500058   230A      2.513788   231A      2.531810  
     232A      2.548941   233A      2.570232   234A      2.584718  
     235A      2.631451   236A      2.642961   237A      2.667652  
     238A      2.703150   239A      2.719005   240A      2.733029  
     241A      2.826837   242A      2.828071   243A      2.834751  
     244A      2.869947   245A      2.890145   246A      2.901587  
     247A      2.918598   248A      2.945218   249A      2.999160  
     250A      3.028102   251A      3.055324   252A      3.089881  
     253A      3.092359   254A      3.122731   255A      3.140166  
     256A      3.182010   257A      3.188934   258A      3.222008  
     259A      3.254289   260A      3.289258   261A      3.297865  
     262A      3.355800   263A      3.380243   264A      3.395774  
     265A      3.423544   266A      3.448344   267A      3.487340  
     268A      3.497678   269A      3.520732   270A      3.633761  
     271A      3.667100   272A      3.686563   273A      3.735766  
     274A      3.770272   275A      3.851281   276A      3.889328  
     277A      3.964680   278A      4.035783   279A      4.094908  
     280A      4.209428   281A      4.244216   282A      4.448395  
     283A      4.463243   284A      4.658628   285A      4.708306  
     286A      4.750095   287A      4.810981   288A      4.994997  
     289A      5.076869   290A      5.241388   291A      5.531623  
     292A      5.669182   293A      5.826797   294A      6.107178  
     295A      6.318329   296A      6.707724   297A      6.967652  
     298A     18.111314   299A     18.648208   300A     19.373843  
     301A     25.245593   302A     25.705484  

    Final Occupation by Irrep:
              A 
    DOCC [    18 ]

  @DF-RHF Final Energy:  -224.76233952678800

   => Energetics <=

    Nuclear Repulsion Energy =            166.6240564503272026
    One-Electron Energy =                -633.4992735040665366
    Two-Electron Energy =                 242.1128775269513369
    Total Energy =                       -224.7623395267879971

Computation Completed


Properties will be evaluated at   0.000000,   0.000000,   0.000000 [a0]

Properties computed using the SCF density matrix

  Nuclear Dipole Moment: [e a0]
     X:   162.5886      Y:  -104.5054      Z:    23.1563

  Electronic Dipole Moment: [e a0]
     X:  -162.9913      Y:   105.1370      Z:   -22.5767

  Dipole Moment: [e a0]
     X:    -0.4027      Y:     0.6317      Z:     0.5796     Total:     0.9472

  Dipole Moment: [D]
     X:    -1.0235      Y:     1.6055      Z:     1.4733     Total:     2.4075


*** tstop() called on ds1 at Mon Oct  4 13:26:27 2021
Module time:
	user time   =      16.98 seconds =       0.28 minutes
	system time =       0.38 seconds =       0.01 minutes
	total time  =          4 seconds =       0.07 minutes
Total time:
	user time   =      40.95 seconds =       0.68 minutes
	system time =       0.99 seconds =       0.02 minutes
	total time  =          9 seconds =       0.15 minutes

  //>>>>>>>>>>>>>>>>>>>>>>>>>>>>>>>>>>>//
  //            Monomer B HF           //
  //<<<<<<<<<<<<<<<<<<<<<<<<<<<<<<<<<<<//


*** tstart() called on ds1
*** at Mon Oct  4 13:26:27 2021

   => Loading Basis Set <=

    Name: AUG-CC-PVDZ
    Role: ORBITAL
    Keyword: BASIS
    atoms 1-2, 10-11 entry N          line   218 file /theoryfs2/ds/csargent/miniconda3/envs/cle/share/psi4/basis/aug-cc-pvdz.gbs 
    atoms 3-6, 12-15 entry H          line    40 file /theoryfs2/ds/csargent/miniconda3/envs/cle/share/psi4/basis/aug-cc-pvdz.gbs 
    atoms 7-9, 16-18 entry C          line   182 file /theoryfs2/ds/csargent/miniconda3/envs/cle/share/psi4/basis/aug-cc-pvdz.gbs 


         ---------------------------------------------------------
                                   SCF
               by Justin Turney, Rob Parrish, Andy Simmonett
                          and Daniel G. A. Smith
                              RHF Reference
                        6 Threads,   6675 MiB Core
         ---------------------------------------------------------

  ==> Geometry <==

    Molecular point group: c1
    Full point group: C1

    Geometry (in Bohr), charge = 0, multiplicity = 1:

       Center              X                  Y                   Z               Mass       
    ------------   -----------------  -----------------  -----------------  -----------------
      Gh(N)           6.279812100000    -4.253033720000     0.193138650000    14.003074004430
      Gh(N)           6.068707770000    -2.281256970000     1.805443170000    14.003074004430
      Gh(H)           3.668711560000    -5.646289410000    -1.966840010000     1.007825032230
      Gh(H)           0.690345210000    -2.375456940000    -0.428642360000     1.007825032230
      Gh(H)           3.359174420000     0.176506010000     3.092650170000     1.007825032230
      Gh(H)           7.352667820000    -1.994613110000     2.906807020000     1.007825032230
      Gh(C)           3.779525860000    -1.215084530000     1.768581720000    12.000000000000
      Gh(C)           2.382429980000    -2.555055380000     0.046076810000    12.000000000000
      Gh(C)           4.017714680000    -4.384104900000    -0.887618630000    12.000000000000
         N          -20.417147100000    -2.293388780000   -20.740453970000    14.003074004430
         N          -20.298284830000    -4.331295820000   -19.203280250000    14.003074004430
         H          -17.743984360000     0.107521180000   -21.458484320000     1.007825032230
         H          -14.849347800000    -2.335017560000   -18.703346820000     1.007825032230
         H          -17.785771870000    -6.048066570000   -16.798710510000     1.007825032230
         H          -21.760693050000    -5.141272880000   -18.817514930000     1.007825032230
         C          -18.015448430000    -4.661471490000   -18.174231400000    12.000000000000
         C          -16.532456000000    -2.731799270000   -19.064153870000    12.000000000000
         C          -18.093761330000    -1.346631460000   -20.655851820000    12.000000000000

  Running in c1 symmetry.

  Rotational constants: A =      0.03550  B =      0.00116  C =      0.00113 [cm^-1]
  Rotational constants: A =   1064.17945  B =     34.84539  C =     33.97452 [MHz]
  Nuclear repulsion =  166.628602772691636

  Charge       = 0
  Multiplicity = 1
  Electrons    = 36
  Nalpha       = 18
  Nbeta        = 18

  ==> Algorithm <==

  SCF Algorithm Type is DF.
  DIIS enabled.
  MOM disabled.
  Fractional occupation disabled.
  Guess Type is SAD.
  Energy threshold   = 1.00e-10
  Density threshold  = 1.00e-10
  Integral threshold = 1.00e-12

  ==> Primary Basis <==

  Basis Set: AUG-CC-PVDZ
    Blend: AUG-CC-PVDZ
    Number of shells: 130
    Number of basis functions: 302
    Number of Cartesian functions: 322
    Spherical Harmonics?: true
    Max angular momentum: 2

   => Loading Basis Set <=

    Name: (AUG-CC-PVDZ AUX)
    Role: JKFIT
    Keyword: DF_BASIS_SCF
    atoms 1-2, 10-11 entry N          line   212 file /theoryfs2/ds/csargent/miniconda3/envs/cle/share/psi4/basis/aug-cc-pvdz-jkfit.gbs 
    atoms 3-6, 12-15 entry H          line    70 file /theoryfs2/ds/csargent/miniconda3/envs/cle/share/psi4/basis/aug-cc-pvdz-jkfit.gbs 
    atoms 7-9, 16-18 entry C          line   154 file /theoryfs2/ds/csargent/miniconda3/envs/cle/share/psi4/basis/aug-cc-pvdz-jkfit.gbs 

  ==> Integral Setup <==

  ==> DiskDFJK: Density-Fitted J/K Matrices <==

    J tasked:                  Yes
    K tasked:                  Yes
    wK tasked:                  No
    OpenMP threads:              6
    Integrals threads:           6
    Memory [MiB]:             5006
    Algorithm:                Core
    Integral Cache:           LOAD
    Schwarz Cutoff:          1E-12
    Fitting Condition:       1E-10

   => Auxiliary Basis Set <=

  Basis Set: (AUG-CC-PVDZ AUX)
    Blend: AUG-CC-PVDZ-JKFIT
    Number of shells: 376
    Number of basis functions: 1116
    Number of Cartesian functions: 1290
    Spherical Harmonics?: true
    Max angular momentum: 3

  Minimum eigenvalue in the overlap matrix is 3.0324384251E-05.
  Reciprocal condition number of the overlap matrix is 2.4867114777E-06.
    Using symmetric orthogonalization.

  ==> Pre-Iterations <==

  SCF Guess: Superposition of Atomic Densities via on-the-fly atomic UHF (no occupation information).

   -------------------------
    Irrep   Nso     Nmo    
   -------------------------
     A        302     302 
   -------------------------
    Total     302     302
   -------------------------

  ==> Iterations <==

                           Total Energy        Delta E     RMS |[F,P]|

   @DF-RHF iter SAD:  -224.72250854388540   -2.24723e+02   0.00000e+00 
   @DF-RHF iter   1:  -224.63556596117635    8.69426e-02   1.50490e-03 DIIS
   @DF-RHF iter   2:  -224.73993305058761   -1.04367e-01   6.88620e-04 DIIS
   @DF-RHF iter   3:  -224.76085080539033   -2.09178e-02   1.48614e-04 DIIS
   @DF-RHF iter   4:  -224.76223500406223   -1.38420e-03   6.05151e-05 DIIS
   @DF-RHF iter   5:  -224.76241324856801   -1.78245e-04   1.19848e-05 DIIS
   @DF-RHF iter   6:  -224.76243018171857   -1.69332e-05   4.96323e-06 DIIS
   @DF-RHF iter   7:  -224.76243412956140   -3.94784e-06   2.18628e-06 DIIS
   @DF-RHF iter   8:  -224.76243488910029   -7.59539e-07   1.01631e-06 DIIS
   @DF-RHF iter   9:  -224.76243505660514   -1.67505e-07   2.83280e-07 DIIS
   @DF-RHF iter  10:  -224.76243506542241   -8.81727e-09   8.55270e-08 DIIS
   @DF-RHF iter  11:  -224.76243506611206   -6.89653e-10   1.99678e-08 DIIS
   @DF-RHF iter  12:  -224.76243506615810   -4.60432e-11   5.80974e-09 DIIS
   @DF-RHF iter  13:  -224.76243506616257   -4.46221e-12   2.83583e-09 DIIS
   @DF-RHF iter  14:  -224.76243506616331   -7.38964e-13   9.79834e-10 DIIS
   @DF-RHF iter  15:  -224.76243506616348   -1.70530e-13   4.16538e-10 DIIS
   @DF-RHF iter  16:  -224.76243506616356   -8.52651e-14   1.25809e-10 DIIS
   @DF-RHF iter  17:  -224.76243506616356    0.00000e+00   4.47604e-11 DIIS
  Energy and wave function converged.


  ==> Post-Iterations <==

    Orbital Energies [Eh]
    ---------------------

    Doubly Occupied:                                                      

       1A    -15.636233     2A    -15.592291     3A    -11.279903  
       4A    -11.237759     5A    -11.209884     6A     -1.387001  
       7A     -1.121894     8A     -1.066928     9A     -0.872759  
      10A     -0.837039    11A     -0.757272    12A     -0.645745  
      13A     -0.620828    14A     -0.609177    15A     -0.583905  
      16A     -0.461413    17A     -0.370715    18A     -0.346055  

    Virtual:                                                              

      19A      0.022039    20A      0.030749    21A      0.039346  
      22A      0.042291    23A      0.043537    24A      0.049172  
      25A      0.063421    26A      0.065356    27A      0.083373  
      28A      0.090096    29A      0.098364    30A      0.101001  
      31A      0.104028    32A      0.117182    33A      0.117690  
      34A      0.125098    35A      0.126275    36A      0.127605  
      37A      0.132742    38A      0.132932    39A      0.133573  
      40A      0.138425    41A      0.141514    42A      0.156857  
      43A      0.157855    44A      0.164574    45A      0.165384  
      46A      0.171080    47A      0.177985    48A      0.179106  
      49A      0.194955    50A      0.196041    51A      0.200976  
      52A      0.204807    53A      0.206167    54A      0.222404  
      55A      0.224532    56A      0.227639    57A      0.234982  
      58A      0.240241    59A      0.243627    60A      0.244966  
      61A      0.263460    62A      0.270459    63A      0.271169  
      64A      0.279087    65A      0.301051    66A      0.321316  
      67A      0.325138    68A      0.339506    69A      0.352355  
      70A      0.355359    71A      0.365965    72A      0.372252  
      73A      0.374915    74A      0.383098    75A      0.396084  
      76A      0.402745    77A      0.415013    78A      0.426895  
      79A      0.431436    80A      0.432174    81A      0.440511  
      82A      0.441686    83A      0.443379    84A      0.453413  
      85A      0.455430    86A      0.456826    87A      0.459816  
      88A      0.461329    89A      0.478660    90A      0.498544  
      91A      0.508693    92A      0.509164    93A      0.518860  
      94A      0.521957    95A      0.532592    96A      0.537404  
      97A      0.541569    98A      0.558700    99A      0.568328  
     100A      0.571234   101A      0.574431   102A      0.586323  
     103A      0.590557   104A      0.594557   105A      0.602432  
     106A      0.612733   107A      0.620666   108A      0.620975  
     109A      0.632938   110A      0.646113   111A      0.655304  
     112A      0.676168   113A      0.690245   114A      0.698042  
     115A      0.700384   116A      0.707234   117A      0.718836  
     118A      0.721650   119A      0.725134   120A      0.735066  
     121A      0.744738   122A      0.747717   123A      0.758648  
     124A      0.773300   125A      0.781476   126A      0.789094  
     127A      0.797568   128A      0.813842   129A      0.820331  
     130A      0.828514   131A      0.838239   132A      0.848383  
     133A      0.851321   134A      0.854534   135A      0.870406  
     136A      0.880455   137A      0.881426   138A      0.888763  
     139A      0.895093   140A      0.906950   141A      0.915602  
     142A      0.924804   143A      0.942600   144A      0.951534  
     145A      0.978204   146A      0.984854   147A      0.996626  
     148A      1.011170   149A      1.023613   150A      1.029731  
     151A      1.046624   152A      1.051149   153A      1.066505  
     154A      1.070549   155A      1.080412   156A      1.100856  
     157A      1.107681   158A      1.128113   159A      1.134153  
     160A      1.150241   161A      1.158318   162A      1.165786  
     163A      1.175167   164A      1.184461   165A      1.220538  
     166A      1.221277   167A      1.236567   168A      1.267512  
     169A      1.269583   170A      1.293288   171A      1.303392  
     172A      1.311433   173A      1.314670   174A      1.340203  
     175A      1.365809   176A      1.381343   177A      1.401040  
     178A      1.434560   179A      1.444274   180A      1.474706  
     181A      1.492792   182A      1.506575   183A      1.512021  
     184A      1.526137   185A      1.560976   186A      1.590891  
     187A      1.608681   188A      1.637442   189A      1.669495  
     190A      1.676285   191A      1.688471   192A      1.703637  
     193A      1.723957   194A      1.749249   195A      1.764367  
     196A      1.805026   197A      1.875590   198A      1.932407  
     199A      1.943562   200A      1.988147   201A      2.021454  
     202A      2.040555   203A      2.057665   204A      2.088811  
     205A      2.108601   206A      2.134326   207A      2.144708  
     208A      2.167572   209A      2.189999   210A      2.200828  
     211A      2.216155   212A      2.230455   213A      2.233341  
     214A      2.261365   215A      2.275832   216A      2.277230  
     217A      2.288766   218A      2.307637   219A      2.335232  
     220A      2.360646   221A      2.380056   222A      2.389121  
     223A      2.393735   224A      2.394093   225A      2.435199  
     226A      2.443400   227A      2.464942   228A      2.477823  
     229A      2.499364   230A      2.513220   231A      2.531790  
     232A      2.548317   233A      2.570195   234A      2.584820  
     235A      2.630855   236A      2.642960   237A      2.667072  
     238A      2.702580   239A      2.718417   240A      2.733014  
     241A      2.826808   242A      2.827418   243A      2.834708  
     244A      2.869395   245A      2.889556   246A      2.901543  
     247A      2.918563   248A      2.944676   249A      2.999197  
     250A      3.027593   251A      3.055311   252A      3.089387  
     253A      3.092441   254A      3.122703   255A      3.139543  
     256A      3.181513   257A      3.189022   258A      3.222030  
     259A      3.253703   260A      3.288753   261A      3.297914  
     262A      3.355347   263A      3.380223   264A      3.395178  
     265A      3.423091   266A      3.447826   267A      3.486719  
     268A      3.497020   269A      3.520765   270A      3.633133  
     271A      3.666510   272A      3.686295   273A      3.735154  
     274A      3.769677   275A      3.850774   276A      3.889251  
     277A      3.963935   278A      4.035116   279A      4.094339  
     280A      4.209319   281A      4.243653   282A      4.447995  
     283A      4.463037   284A      4.658011   285A      4.707635  
     286A      4.749481   287A      4.810360   288A      4.994433  
     289A      5.076391   290A      5.241021   291A      5.530818  
     292A      5.668566   293A      5.826436   294A      6.106279  
     295A      6.317808   296A      6.707906   297A      6.967457  
     298A     18.110689   299A     18.647393   300A     19.373136  
     301A     25.245161   302A     25.704576  

    Final Occupation by Irrep:
              A 
    DOCC [    18 ]

  @DF-RHF Final Energy:  -224.76243506616356

   => Energetics <=

    Nuclear Repulsion Energy =            166.6286027726916359
    One-Electron Energy =                -633.5084734474502284
    Two-Electron Energy =                 242.1174356085950308
    Total Energy =                       -224.7624350661635617

Computation Completed


Properties will be evaluated at   0.000000,   0.000000,   0.000000 [a0]

Properties computed using the SCF density matrix

  Nuclear Dipole Moment: [e a0]
     X:  -672.9978      Y:  -112.2290      Z:  -702.7496

  Electronic Dipole Moment: [e a0]
     X:   673.2887      Y:   111.6650      Z:   703.4527

  Dipole Moment: [e a0]
     X:     0.2909      Y:    -0.5640      Z:     0.7031     Total:     0.9472

  Dipole Moment: [D]
     X:     0.7394      Y:    -1.4336      Z:     1.7871     Total:     2.4074


*** tstop() called on ds1 at Mon Oct  4 13:26:30 2021
Module time:
	user time   =      16.69 seconds =       0.28 minutes
	system time =       0.33 seconds =       0.01 minutes
	total time  =          3 seconds =       0.05 minutes
Total time:
	user time   =      57.68 seconds =       0.96 minutes
	system time =       1.32 seconds =       0.02 minutes
	total time  =         12 seconds =       0.20 minutes
  Constructing Basis Sets for SAPT...

   => Loading Basis Set <=

    Name: (AUG-CC-PVDZ AUX)
    Role: RIFIT
    Keyword: DF_BASIS_SAPT
    atoms 1-2, 10-11 entry N          line   158 file /theoryfs2/ds/csargent/miniconda3/envs/cle/share/psi4/basis/aug-cc-pvdz-ri.gbs 
    atoms 3-6, 12-15 entry H          line    30 file /theoryfs2/ds/csargent/miniconda3/envs/cle/share/psi4/basis/aug-cc-pvdz-ri.gbs 
    atoms 7-9, 16-18 entry C          line   112 file /theoryfs2/ds/csargent/miniconda3/envs/cle/share/psi4/basis/aug-cc-pvdz-ri.gbs 


  //>>>>>>>>>>>>>>>>>>>>>>>>>>>>>>>>>>>//
  //               SAPT0               //
  //<<<<<<<<<<<<<<<<<<<<<<<<<<<<<<<<<<<//


*** tstart() called on ds1
*** at Mon Oct  4 13:26:30 2021

        SAPT0  
    Ed Hohenstein
     6 June 2009

      Orbital Information
  --------------------------
    NSO        =       302
    NMO        =       302
    NRI        =       904
    NOCC A     =        18
    NOCC B     =        18
    FOCC A     =         5
    FOCC B     =         5
    NVIR A     =       284
    NVIR B     =       284

    Elst10,r            =     0.000002195660 [Eh]
    Exch10              =     0.000000000027 [Eh]
    Exch10 (S^2)        =     0.000000000027 [Eh]

    Iter     Energy [mEh]          dE [mEh]         Residual      Time [s]
       1      -0.00004845       0.000048450       0.080306539             1
       2      -0.00004387      -0.000004585       0.017704913             1
       3      -0.00004826       0.000004392       0.005836908             1
       4      -0.00004862       0.000000362       0.002041035             1
       5      -0.00004855      -0.000000072       0.000881873             1
       6      -0.00004850      -0.000000045       0.000323088             1
       7      -0.00004850      -0.000000003       0.000113382             1
       8      -0.00004851       0.000000008       0.000047784             1
       9      -0.00004851       0.000000000       0.000017309             2
      10      -0.00004851      -0.000000001       0.000004413             2
      11      -0.00004851       0.000000000       0.000001626             2
      12      -0.00004851       0.000000000       0.000000548             2

    CHF Iterations converged


    Iter     Energy [mEh]          dE [mEh]         Residual      Time [s]
       1      -0.00001199       0.000011991       0.030516114             0
       2      -0.00001100      -0.000000990       0.006668218             0
       3      -0.00001200       0.000000996       0.002453542             0
       4      -0.00001207       0.000000073       0.000602050             0
       5      -0.00001204      -0.000000033       0.000159029             1
       6      -0.00001203      -0.000000001       0.000058759             1
       7      -0.00001204       0.000000001       0.000024200             1
       8      -0.00001204       0.000000000       0.000013818             1
       9      -0.00001204      -0.000000000       0.000004816             1
      10      -0.00001204      -0.000000000       0.000001202             1
      11      -0.00001204       0.000000000       0.000000465             1

    CHF Iterations converged

    Ind20,r (A<-B)      =    -0.000000048508 [Eh]
    Ind20,r (B<-A)      =    -0.000000012036 [Eh]
    Ind20,r             =    -0.000000060544 [Eh]
    Exch-Ind20,r (A<-B) =     0.000000000019 [Eh]
    Exch-Ind20,r (B<-A) =     0.000000000020 [Eh]
    Exch-Ind20,r        =     0.000000000039 [Eh]
    Disp20              =    -0.000001640553 [Eh]
    Disp20 (SS)         =    -0.000000820276 [Eh]
    Disp20 (OS)         =    -0.000000820276 [Eh]
    Exch-Disp20         =     0.000000000001 [Eh]
    Exch-Disp20 (SS)    =     0.000000000001 [Eh]
    Exch-Disp20 (OS)    =     0.000000000000 [Eh]

    SAPT Results 
  --------------------------------------------------------------------------------------------------------
    Electrostatics                  0.00219566 [mEh]       0.00137780 [kcal/mol]       0.00576470 [kJ/mol]
      Elst10,r                      0.00219566 [mEh]       0.00137780 [kcal/mol]       0.00576470 [kJ/mol]

    Exchange                        0.00000003 [mEh]       0.00000002 [kcal/mol]       0.00000007 [kJ/mol]
      Exch10                        0.00000003 [mEh]       0.00000002 [kcal/mol]       0.00000007 [kJ/mol]
      Exch10(S^2)                   0.00000003 [mEh]       0.00000002 [kcal/mol]       0.00000007 [kJ/mol]

    Induction                       0.00005167 [mEh]       0.00003242 [kcal/mol]       0.00013566 [kJ/mol]
      Ind20,r                      -0.00006054 [mEh]      -0.00003799 [kcal/mol]      -0.00015896 [kJ/mol]
      Exch-Ind20,r                  0.00000004 [mEh]       0.00000002 [kcal/mol]       0.00000010 [kJ/mol]
      delta HF,r (2)                0.00011218 [mEh]       0.00007039 [kcal/mol]       0.00029452 [kJ/mol]

    Dispersion                     -0.00164055 [mEh]      -0.00102946 [kcal/mol]      -0.00430727 [kJ/mol]
      Disp20                       -0.00164055 [mEh]      -0.00102946 [kcal/mol]      -0.00430727 [kJ/mol]
      Exch-Disp20                   0.00000000 [mEh]       0.00000000 [kcal/mol]       0.00000000 [kJ/mol]
      Disp20 (SS)                  -0.00082028 [mEh]      -0.00051473 [kcal/mol]      -0.00215364 [kJ/mol]
      Disp20 (OS)                  -0.00082028 [mEh]      -0.00051473 [kcal/mol]      -0.00215364 [kJ/mol]
      Exch-Disp20 (SS)              0.00000000 [mEh]       0.00000000 [kcal/mol]       0.00000000 [kJ/mol]
      Exch-Disp20 (OS)              0.00000000 [mEh]       0.00000000 [kcal/mol]       0.00000000 [kJ/mol]

  Total HF                          0.00224736 [mEh]       0.00141024 [kcal/mol]       0.00590044 [kJ/mol]
  Total SAPT0                       0.00060681 [mEh]       0.00038078 [kcal/mol]       0.00159317 [kJ/mol]

  Special recipe for scaled SAPT0 (see Manual):
    Electrostatics sSAPT0           0.00219566 [mEh]       0.00137780 [kcal/mol]       0.00576470 [kJ/mol]
    Exchange sSAPT0                 0.00000003 [mEh]       0.00000002 [kcal/mol]       0.00000007 [kJ/mol]
    Induction sSAPT0                0.00005167 [mEh]       0.00003242 [kcal/mol]       0.00013566 [kJ/mol]
    Dispersion sSAPT0              -0.00164055 [mEh]      -0.00102946 [kcal/mol]      -0.00430727 [kJ/mol]
  Total sSAPT0                      0.00060681 [mEh]       0.00038078 [kcal/mol]       0.00159317 [kJ/mol]
  --------------------------------------------------------------------------------------------------------

*** tstop() called on ds1 at Mon Oct  4 13:26:40 2021
Module time:
	user time   =      44.63 seconds =       0.74 minutes
	system time =       3.86 seconds =       0.06 minutes
	total time  =         10 seconds =       0.17 minutes
Total time:
	user time   =     103.22 seconds =       1.72 minutes
	system time =       5.21 seconds =       0.09 minutes
	total time  =         22 seconds =       0.37 minutes


Warning! sapt0 does not have an associated derived wavefunction.The returned wavefunction is the dimer SCF wavefunction.


    Psi4 stopped on: Monday, 04 October 2021 01:26PM
    Psi4 wall time for execution: 0:00:21.95

*** Psi4 exiting successfully. Buy a developer a beer!
