
    -----------------------------------------------------------------------
          Psi4: An Open-Source Ab Initio Electronic Structure Package
                               Psi4 1.4rc3 

                         Git: Rev {HEAD} 080dba6 


    D. G. A. Smith, L. A. Burns, A. C. Simmonett, R. M. Parrish,
    M. C. Schieber, R. Galvelis, P. Kraus, H. Kruse, R. Di Remigio,
    A. Alenaizan, A. M. James, S. Lehtola, J. P. Misiewicz, M. Scheurer,
    R. A. Shaw, J. B. Schriber, Y. Xie, Z. L. Glick, D. A. Sirianni,
    J. S. O'Brien, J. M. Waldrop, A. Kumar, E. G. Hohenstein,
    B. P. Pritchard, B. R. Brooks, H. F. Schaefer III, A. Yu. Sokolov,
    K. Patkowski, A. E. DePrince III, U. Bozkaya, R. A. King,
    F. A. Evangelista, J. M. Turney, T. D. Crawford, C. D. Sherrill,
    J. Chem. Phys. 152(18) 184108 (2020). https://doi.org/10.1063/5.0006002

                            Additional Code Authors
    E. T. Seidl, C. L. Janssen, E. F. Valeev, M. L. Leininger,
    J. F. Gonthier, R. M. Richard, H. R. McAlexander, M. Saitow, X. Wang,
    P. Verma, and M. H. Lechner

             Previous Authors, Complete List of Code Contributors,
                       and Citations for Specific Modules
    https://github.com/psi4/psi4/blob/master/codemeta.json
    https://github.com/psi4/psi4/graphs/contributors
    http://psicode.org/psi4manual/master/introduction.html#citing-psifour

    -----------------------------------------------------------------------


    Psi4 started on: Monday, 04 October 2021 03:43PM

    Process ID: 13691
    Host:       ds1
    PSIDATADIR: /theoryfs2/ds/csargent/miniconda3/envs/cle/share/psi4
    Memory:     500.0 MiB
    Threads:    6
    
  ==> Input File <==

--------------------------------------------------------------------------
# PSI4 file produced by CrystaLattE

# Generated from:               pyrazole.xyz
# Psithon input for N-mer:      2mer-0+363
# Number of atoms per monomer:  [9, 9]
# Number of replicas:           2
# COM priority:                 1.521971144650e-05
# Minimum COM separations:      21.353 
# Separation priority:          2.590105239553e-05
# Minimum monomer separations:  17.885 
# Cutoff priority:              7.663430337303e-07
# Nuclear repulsion energy:     365.3895008604012

memory 7 GB

molecule Dimer_0_363 {
  N            6.27981210      -4.25303372       0.19313865 
  N            6.06870777      -2.28125697       1.80544317 
  H            3.66871156      -5.64628941      -1.96684001 
  H            0.69034521      -2.37545694      -0.42864236 
  H            3.35917442       0.17650601       3.09265017 
  H            7.35266782      -1.99461311       2.90680702 
  C            3.77952586      -1.21508453       1.76858172 
  C            2.38242998      -2.55505538       0.04607681 
  C            4.01771468      -4.38410490      -0.88761863 
--
  N          -16.93547335       7.64090252      31.85072579 
  N          -17.14657768       9.61267926      30.23842126 
  H          -19.54657389       6.24764682      34.01070444 
  H          -22.52494025       9.51847929      32.47250680 
  H          -19.85611103      12.07044225      28.95121426 
  H          -15.86261763       9.89932313      29.13705741 
  C          -19.43575960      10.67885171      30.27528272 
  C          -20.83285547       9.33888085      31.99778762 
  C          -19.19757077       7.50983134      32.93148306 
units = au
no_com
no_reorient
}

set {
  e_convergence 10
  d_convergence 10
  scf_type df
  mp2_type df
  cc_type df
  freeze_core true
}

energy('sapt0/aug-cc-pvdz')

--------------------------------------------------------------------------

  Memory set to   6.519 GiB by Python driver.

Scratch directory: /scratch/csargent/psi4.7158.66302/

Scratch directory: /scratch/csargent/psi4.7158.66302/

  //>>>>>>>>>>>>>>>>>>>>>>>>>>>>>>>>>>>//
  //              Dimer HF             //
  //<<<<<<<<<<<<<<<<<<<<<<<<<<<<<<<<<<<//


*** tstart() called on ds1
*** at Mon Oct  4 15:43:55 2021

   => Loading Basis Set <=

    Name: AUG-CC-PVDZ
    Role: ORBITAL
    Keyword: BASIS
    atoms 1-2, 10-11 entry N          line   218 file /theoryfs2/ds/csargent/miniconda3/envs/cle/share/psi4/basis/aug-cc-pvdz.gbs 
    atoms 3-6, 12-15 entry H          line    40 file /theoryfs2/ds/csargent/miniconda3/envs/cle/share/psi4/basis/aug-cc-pvdz.gbs 
    atoms 7-9, 16-18 entry C          line   182 file /theoryfs2/ds/csargent/miniconda3/envs/cle/share/psi4/basis/aug-cc-pvdz.gbs 


         ---------------------------------------------------------
                                   SCF
               by Justin Turney, Rob Parrish, Andy Simmonett
                          and Daniel G. A. Smith
                              RHF Reference
                        6 Threads,   6675 MiB Core
         ---------------------------------------------------------

  ==> Geometry <==

    Molecular point group: c1
    Full point group: C1

    Geometry (in Bohr), charge = 0, multiplicity = 1:

       Center              X                  Y                   Z               Mass       
    ------------   -----------------  -----------------  -----------------  -----------------
         N            6.279812100000    -4.253033720000     0.193138650000    14.003074004430
         N            6.068707770000    -2.281256970000     1.805443170000    14.003074004430
         H            3.668711560000    -5.646289410000    -1.966840010000     1.007825032230
         H            0.690345210000    -2.375456940000    -0.428642360000     1.007825032230
         H            3.359174420000     0.176506010000     3.092650170000     1.007825032230
         H            7.352667820000    -1.994613110000     2.906807020000     1.007825032230
         C            3.779525860000    -1.215084530000     1.768581720000    12.000000000000
         C            2.382429980000    -2.555055380000     0.046076810000    12.000000000000
         C            4.017714680000    -4.384104900000    -0.887618630000    12.000000000000
         N          -16.935473350000     7.640902520000    31.850725790000    14.003074004430
         N          -17.146577680000     9.612679260000    30.238421260000    14.003074004430
         H          -19.546573890000     6.247646820000    34.010704440000     1.007825032230
         H          -22.524940250000     9.518479290000    32.472506800000     1.007825032230
         H          -19.856111030000    12.070442250000    28.951214260000     1.007825032230
         H          -15.862617630000     9.899323130000    29.137057410000     1.007825032230
         C          -19.435759600000    10.678851710000    30.275282720000    12.000000000000
         C          -20.832855470000     9.338880850000    31.997787620000    12.000000000000
         C          -19.197570770000     7.509831340000    32.931483060000    12.000000000000

  Running in c1 symmetry.

  Rotational constants: A =      0.02852  B =      0.00062  C =      0.00061 [cm^-1]
  Rotational constants: A =    855.00082  B =     18.58045  C =     18.25496 [MHz]
  Nuclear repulsion =  365.389500845335363

  Charge       = 0
  Multiplicity = 1
  Electrons    = 72
  Nalpha       = 36
  Nbeta        = 36

  ==> Algorithm <==

  SCF Algorithm Type is DF.
  DIIS enabled.
  MOM disabled.
  Fractional occupation disabled.
  Guess Type is SAD.
  Energy threshold   = 1.00e-10
  Density threshold  = 1.00e-10
  Integral threshold = 1.00e-12

  ==> Primary Basis <==

  Basis Set: AUG-CC-PVDZ
    Blend: AUG-CC-PVDZ
    Number of shells: 130
    Number of basis functions: 302
    Number of Cartesian functions: 322
    Spherical Harmonics?: true
    Max angular momentum: 2

   => Loading Basis Set <=

    Name: (AUG-CC-PVDZ AUX)
    Role: JKFIT
    Keyword: DF_BASIS_SCF
    atoms 1-2, 10-11 entry N          line   212 file /theoryfs2/ds/csargent/miniconda3/envs/cle/share/psi4/basis/aug-cc-pvdz-jkfit.gbs 
    atoms 3-6, 12-15 entry H          line    70 file /theoryfs2/ds/csargent/miniconda3/envs/cle/share/psi4/basis/aug-cc-pvdz-jkfit.gbs 
    atoms 7-9, 16-18 entry C          line   154 file /theoryfs2/ds/csargent/miniconda3/envs/cle/share/psi4/basis/aug-cc-pvdz-jkfit.gbs 

  ==> Integral Setup <==

  ==> DiskDFJK: Density-Fitted J/K Matrices <==

    J tasked:                  Yes
    K tasked:                  Yes
    wK tasked:                  No
    OpenMP threads:              6
    Integrals threads:           6
    Memory [MiB]:             5006
    Algorithm:                Core
    Integral Cache:           SAVE
    Schwarz Cutoff:          1E-12
    Fitting Condition:       1E-10

   => Auxiliary Basis Set <=

  Basis Set: (AUG-CC-PVDZ AUX)
    Blend: AUG-CC-PVDZ-JKFIT
    Number of shells: 376
    Number of basis functions: 1116
    Number of Cartesian functions: 1290
    Spherical Harmonics?: true
    Max angular momentum: 3

  Minimum eigenvalue in the overlap matrix is 3.0333777072E-05.
  Reciprocal condition number of the overlap matrix is 2.4874860195E-06.
    Using symmetric orthogonalization.

  ==> Pre-Iterations <==

  SCF Guess: Superposition of Atomic Densities via on-the-fly atomic UHF (no occupation information).

   -------------------------
    Irrep   Nso     Nmo    
   -------------------------
     A        302     302 
   -------------------------
    Total     302     302
   -------------------------

  ==> Iterations <==

                           Total Energy        Delta E     RMS |[F,P]|

   @DF-RHF iter SAD:  -449.44389602801164   -4.49444e+02   0.00000e+00 
   @DF-RHF iter   1:  -449.27094404962043    1.72952e-01   2.12813e-03 DIIS
   @DF-RHF iter   2:  -449.47965793914585   -2.08714e-01   9.73910e-04 DIIS
   @DF-RHF iter   3:  -449.52149931246640   -4.18414e-02   2.10293e-04 DIIS
   @DF-RHF iter   4:  -449.52426980575626   -2.77049e-03   8.56792e-05 DIIS
   @DF-RHF iter   5:  -449.52462712558872   -3.57320e-04   1.69524e-05 DIIS
   @DF-RHF iter   6:  -449.52466104712352   -3.39215e-05   7.02567e-06 DIIS
   @DF-RHF iter   7:  -449.52466896103147   -7.91391e-06   3.09229e-06 DIIS
   @DF-RHF iter   8:  -449.52467048204426   -1.52101e-06   1.43826e-06 DIIS
   @DF-RHF iter   9:  -449.52467081706789   -3.35024e-07   4.00729e-07 DIIS
   @DF-RHF iter  10:  -449.52467083470532   -1.76374e-08   1.21054e-07 DIIS
   @DF-RHF iter  11:  -449.52467083608525   -1.37993e-09   2.82394e-08 DIIS
   @DF-RHF iter  12:  -449.52467083617677   -9.15179e-11   8.21499e-09 DIIS
   @DF-RHF iter  13:  -449.52467083618592   -9.15179e-12   4.00041e-09 DIIS
   @DF-RHF iter  14:  -449.52467083618768   -1.76215e-12   1.37686e-09 DIIS
   @DF-RHF iter  15:  -449.52467083618785   -1.70530e-13   5.87138e-10 DIIS
   @DF-RHF iter  16:  -449.52467083618814   -2.84217e-13   1.78555e-10 DIIS
   @DF-RHF iter  17:  -449.52467083618825   -1.13687e-13   6.36538e-11 DIIS
  Energy and wave function converged.


  ==> Post-Iterations <==

    Orbital Energies [Eh]
    ---------------------

    Doubly Occupied:                                                      

       1A    -15.636731     2A    -15.636266     3A    -15.592810  
       4A    -15.592356     5A    -11.280391     6A    -11.279947  
       7A    -11.238274     8A    -11.237826     9A    -11.210376  
      10A    -11.209947    11A     -1.387427    12A     -1.386964  
      13A     -1.122404    14A     -1.121944    15A     -1.067392  
      16A     -1.066949    17A     -0.873266    18A     -0.872812  
      19A     -0.837550    20A     -0.837109    21A     -0.757789  
      22A     -0.757348    23A     -0.646242    24A     -0.645792  
      25A     -0.621322    26A     -0.620884    27A     -0.609644  
      28A     -0.609183    29A     -0.584412    30A     -0.583973  
      31A     -0.461906    32A     -0.461443    33A     -0.371216  
      34A     -0.370763    35A     -0.346542    36A     -0.346097  

    Virtual:                                                              

      37A      0.030203    38A      0.030682    39A      0.041955  
      40A      0.042296    41A      0.048637    42A      0.049107  
      43A      0.063032    44A      0.063453    45A      0.100488  
      46A      0.100939    47A      0.103532    48A      0.103979  
      49A      0.116732    50A      0.117143    51A      0.125776  
      52A      0.126222    53A      0.132556    54A      0.133002  
      55A      0.137969    56A      0.138325    57A      0.141051  
      58A      0.141402    59A      0.156442    60A      0.156800  
      61A      0.164156    62A      0.164513    63A      0.170569  
      64A      0.171035    65A      0.177928    66A      0.178360  
      67A      0.195473    68A      0.196002    69A      0.204268  
      70A      0.204763    71A      0.205631    72A      0.206138  
      73A      0.239760    74A      0.240188    75A      0.243126  
      76A      0.243579    77A      0.244461    78A      0.244930  
      79A      0.270629    80A      0.271097    81A      0.278553  
      82A      0.279021    83A      0.300535    84A      0.300986  
      85A      0.324648    86A      0.325092    87A      0.351853  
      88A      0.352302    89A      0.354883    90A      0.355297  
      91A      0.374412    92A      0.374852    93A      0.395568  
      94A      0.395987    95A      0.402240    96A      0.402686  
      97A      0.414544    98A      0.414922    99A      0.431611  
     100A      0.432090   101A      0.442894   102A      0.443354  
     103A      0.452891   104A      0.453349   105A      0.459336  
     106A      0.459767   107A      0.478132   108A      0.478612  
     109A      0.498055   110A      0.498499   111A      0.508199  
     112A      0.508645   113A      0.521421   114A      0.521852  
     115A      0.541079   116A      0.541508   117A      0.573917  
     118A      0.574386   119A      0.585823   120A      0.586268  
     121A      0.590047   122A      0.590482   123A      0.601919  
     124A      0.602355   125A      0.620469   126A      0.620897  
     127A      0.645627   128A      0.646056   129A      0.654821  
     130A      0.655227   131A      0.675673   132A      0.676112  
     133A      0.697556   134A      0.697988   135A      0.699895  
     136A      0.700341   137A      0.721173   138A      0.721617  
     139A      0.724621   140A      0.725056   141A      0.747217  
     142A      0.747661   143A      0.758107   144A      0.758540  
     145A      0.772830   146A      0.773271   147A      0.780975  
     148A      0.781439   149A      0.828008   150A      0.828466  
     151A      0.837725   152A      0.838181   153A      0.847909  
     154A      0.848336   155A      0.880916   156A      0.881337  
     157A      0.888276   158A      0.888710   159A      0.906461  
     160A      0.906903   161A      0.924308   162A      0.924771  
     163A      0.942090   164A      0.942536   165A      0.977739  
     166A      0.978177   167A      0.984360   168A      0.984800  
     169A      1.010649   170A      1.011114   171A      1.046092  
     172A      1.046569   173A      1.066017   174A      1.066447  
     175A      1.100339   176A      1.100808   177A      1.127568  
     178A      1.128008   179A      1.133695   180A      1.134150  
     181A      1.149747   182A      1.150183   183A      1.174677  
     184A      1.175120   185A      1.220049   186A      1.220506  
     187A      1.269063   188A      1.269506   189A      1.302842  
     190A      1.303300   191A      1.310894   192A      1.311358  
     193A      1.365303   194A      1.365765   195A      1.400560  
     196A      1.400990   197A      1.474180   198A      1.474650  
     199A      1.511521   200A      1.511985   201A      1.525642  
     202A      1.526077   203A      1.560501   204A      1.560940  
     205A      1.590394   206A      1.590825   207A      1.608183  
     208A      1.608618   209A      1.636957   210A      1.637383  
     211A      1.668986   212A      1.669418   213A      1.703137  
     214A      1.703585   215A      1.723455   216A      1.723904  
     217A      1.748725   218A      1.749169   219A      1.763879  
     220A      1.764324   221A      1.804557   222A      1.805002  
     223A      1.875137   224A      1.875577   225A      1.931896  
     226A      1.932343   227A      1.943076   228A      1.943502  
     229A      1.987583   230A      1.988018   231A      2.020950  
     232A      2.021399   233A      2.057117   234A      2.057562  
     235A      2.088338   236A      2.088788   237A      2.144191  
     238A      2.144640   239A      2.189513   240A      2.189951  
     241A      2.200341   242A      2.200777   243A      2.229954  
     244A      2.230411   245A      2.275343   246A      2.275776  
     247A      2.307138   248A      2.307593   249A      2.360228  
     250A      2.360668   251A      2.388632   252A      2.389083  
     253A      2.393298   254A      2.393781   255A      2.434738  
     256A      2.435205   257A      2.464446   258A      2.464927  
     259A      2.531301   260A      2.531751   261A      2.569734  
     262A      2.570187   263A      2.584202   264A      2.584673  
     265A      2.642459   266A      2.642914   267A      2.732524  
     268A      2.732977   269A      2.826342   270A      2.826794  
     271A      2.834254   272A      2.834706   273A      2.901082  
     274A      2.901544   275A      2.918088   276A      2.918554  
     277A      2.998660   278A      2.999108   279A      3.054822  
     280A      3.055276   281A      3.091856   282A      3.092317  
     283A      3.122233   284A      3.122683   285A      3.188440  
     286A      3.188886   287A      3.221514   288A      3.221959  
     289A      3.297367   290A      3.297824   291A      3.379743  
     292A      3.380180   293A      3.520224   294A      3.520684  
     295A      3.686072   296A      3.686515   297A      3.888818  
     298A      3.889285   299A      4.208927   300A      4.209387  
     301A      4.462749   302A      4.463183  

    Final Occupation by Irrep:
              A 
    DOCC [    36 ]

  @DF-RHF Final Energy:  -449.52467083618825

   => Energetics <=

    Nuclear Repulsion Energy =            365.3895008453353626
    One-Electron Energy =               -1331.2617501954941872
    Two-Electron Energy =                 516.3475785139705749
    Total Energy =                       -449.5246708361883066

Computation Completed


Properties will be evaluated at   0.000000,   0.000000,   0.000000 [a0]

Properties computed using the SCF density matrix

  Nuclear Dipole Moment: [e a0]
     X:  -510.5732      Y:   219.1710      Z:  1153.5791

  Electronic Dipole Moment: [e a0]
     X:   509.7673      Y:  -217.9084      Z: -1153.5781

  Dipole Moment: [e a0]
     X:    -0.8059      Y:     1.2626      Z:     0.0010     Total:     1.4979

  Dipole Moment: [D]
     X:    -2.0483      Y:     3.2092      Z:     0.0025     Total:     3.8072


*** tstop() called on ds1 at Mon Oct  4 15:44:00 2021
Module time:
	user time   =      22.07 seconds =       0.37 minutes
	system time =       0.55 seconds =       0.01 minutes
	total time  =          5 seconds =       0.08 minutes
Total time:
	user time   =      22.07 seconds =       0.37 minutes
	system time =       0.55 seconds =       0.01 minutes
	total time  =          5 seconds =       0.08 minutes

  //>>>>>>>>>>>>>>>>>>>>>>>>>>>>>>>>>>>//
  //            Monomer A HF           //
  //<<<<<<<<<<<<<<<<<<<<<<<<<<<<<<<<<<<//


*** tstart() called on ds1
*** at Mon Oct  4 15:44:00 2021

   => Loading Basis Set <=

    Name: AUG-CC-PVDZ
    Role: ORBITAL
    Keyword: BASIS
    atoms 1-2, 10-11 entry N          line   218 file /theoryfs2/ds/csargent/miniconda3/envs/cle/share/psi4/basis/aug-cc-pvdz.gbs 
    atoms 3-6, 12-15 entry H          line    40 file /theoryfs2/ds/csargent/miniconda3/envs/cle/share/psi4/basis/aug-cc-pvdz.gbs 
    atoms 7-9, 16-18 entry C          line   182 file /theoryfs2/ds/csargent/miniconda3/envs/cle/share/psi4/basis/aug-cc-pvdz.gbs 


         ---------------------------------------------------------
                                   SCF
               by Justin Turney, Rob Parrish, Andy Simmonett
                          and Daniel G. A. Smith
                              RHF Reference
                        6 Threads,   6675 MiB Core
         ---------------------------------------------------------

  ==> Geometry <==

    Molecular point group: c1
    Full point group: C1

    Geometry (in Bohr), charge = 0, multiplicity = 1:

       Center              X                  Y                   Z               Mass       
    ------------   -----------------  -----------------  -----------------  -----------------
         N            6.279812100000    -4.253033720000     0.193138650000    14.003074004430
         N            6.068707770000    -2.281256970000     1.805443170000    14.003074004430
         H            3.668711560000    -5.646289410000    -1.966840010000     1.007825032230
         H            0.690345210000    -2.375456940000    -0.428642360000     1.007825032230
         H            3.359174420000     0.176506010000     3.092650170000     1.007825032230
         H            7.352667820000    -1.994613110000     2.906807020000     1.007825032230
         C            3.779525860000    -1.215084530000     1.768581720000    12.000000000000
         C            2.382429980000    -2.555055380000     0.046076810000    12.000000000000
         C            4.017714680000    -4.384104900000    -0.887618630000    12.000000000000
      Gh(N)         -16.935473350000     7.640902520000    31.850725790000    14.003074004430
      Gh(N)         -17.146577680000     9.612679260000    30.238421260000    14.003074004430
      Gh(H)         -19.546573890000     6.247646820000    34.010704440000     1.007825032230
      Gh(H)         -22.524940250000     9.518479290000    32.472506800000     1.007825032230
      Gh(H)         -19.856111030000    12.070442250000    28.951214260000     1.007825032230
      Gh(H)         -15.862617630000     9.899323130000    29.137057410000     1.007825032230
      Gh(C)         -19.435759600000    10.678851710000    30.275282720000    12.000000000000
      Gh(C)         -20.832855470000     9.338880850000    31.997787620000    12.000000000000
      Gh(C)         -19.197570770000     7.509831340000    32.931483060000    12.000000000000

  Running in c1 symmetry.

  Rotational constants: A =      0.02852  B =      0.00062  C =      0.00061 [cm^-1]
  Rotational constants: A =    855.00082  B =     18.58045  C =     18.25496 [MHz]
  Nuclear repulsion =  166.624056450327203

  Charge       = 0
  Multiplicity = 1
  Electrons    = 36
  Nalpha       = 18
  Nbeta        = 18

  ==> Algorithm <==

  SCF Algorithm Type is DF.
  DIIS enabled.
  MOM disabled.
  Fractional occupation disabled.
  Guess Type is SAD.
  Energy threshold   = 1.00e-10
  Density threshold  = 1.00e-10
  Integral threshold = 1.00e-12

  ==> Primary Basis <==

  Basis Set: AUG-CC-PVDZ
    Blend: AUG-CC-PVDZ
    Number of shells: 130
    Number of basis functions: 302
    Number of Cartesian functions: 322
    Spherical Harmonics?: true
    Max angular momentum: 2

   => Loading Basis Set <=

    Name: (AUG-CC-PVDZ AUX)
    Role: JKFIT
    Keyword: DF_BASIS_SCF
    atoms 1-2, 10-11 entry N          line   212 file /theoryfs2/ds/csargent/miniconda3/envs/cle/share/psi4/basis/aug-cc-pvdz-jkfit.gbs 
    atoms 3-6, 12-15 entry H          line    70 file /theoryfs2/ds/csargent/miniconda3/envs/cle/share/psi4/basis/aug-cc-pvdz-jkfit.gbs 
    atoms 7-9, 16-18 entry C          line   154 file /theoryfs2/ds/csargent/miniconda3/envs/cle/share/psi4/basis/aug-cc-pvdz-jkfit.gbs 

  ==> Integral Setup <==

  ==> DiskDFJK: Density-Fitted J/K Matrices <==

    J tasked:                  Yes
    K tasked:                  Yes
    wK tasked:                  No
    OpenMP threads:              6
    Integrals threads:           6
    Memory [MiB]:             5006
    Algorithm:                Core
    Integral Cache:           LOAD
    Schwarz Cutoff:          1E-12
    Fitting Condition:       1E-10

   => Auxiliary Basis Set <=

  Basis Set: (AUG-CC-PVDZ AUX)
    Blend: AUG-CC-PVDZ-JKFIT
    Number of shells: 376
    Number of basis functions: 1116
    Number of Cartesian functions: 1290
    Spherical Harmonics?: true
    Max angular momentum: 3

  Minimum eigenvalue in the overlap matrix is 3.0333777072E-05.
  Reciprocal condition number of the overlap matrix is 2.4874860195E-06.
    Using symmetric orthogonalization.

  ==> Pre-Iterations <==

  SCF Guess: Superposition of Atomic Densities via on-the-fly atomic UHF (no occupation information).

   -------------------------
    Irrep   Nso     Nmo    
   -------------------------
     A        302     302 
   -------------------------
    Total     302     302
   -------------------------

  ==> Iterations <==

                           Total Energy        Delta E     RMS |[F,P]|

   @DF-RHF iter SAD:  -224.72194801291187   -2.24722e+02   0.00000e+00 
   @DF-RHF iter   1:  -224.63549169963133    8.64563e-02   1.50472e-03 DIIS
   @DF-RHF iter   2:  -224.73984613222009   -1.04354e-01   6.88462e-04 DIIS
   @DF-RHF iter   3:  -224.76075487113417   -2.09087e-02   1.48626e-04 DIIS
   @DF-RHF iter   4:  -224.76213931490469   -1.38444e-03   6.05310e-05 DIIS
   @DF-RHF iter   5:  -224.76231766966288   -1.78355e-04   1.19893e-05 DIIS
   @DF-RHF iter   6:  -224.76233462713654   -1.69575e-05   4.96772e-06 DIIS
   @DF-RHF iter   7:  -224.76233858317431   -3.95604e-06   2.18806e-06 DIIS
   @DF-RHF iter   8:  -224.76233934391647   -7.60742e-07   1.01700e-06 DIIS
   @DF-RHF iter   9:  -224.76233951155879   -1.67642e-07   2.83302e-07 DIIS
   @DF-RHF iter  10:  -224.76233952037964   -8.82085e-09   8.55547e-08 DIIS
   @DF-RHF iter  11:  -224.76233952106892   -6.89283e-10   1.99714e-08 DIIS
   @DF-RHF iter  12:  -224.76233952111482   -4.59011e-11   5.81092e-09 DIIS
   @DF-RHF iter  13:  -224.76233952111949   -4.66116e-12   2.83097e-09 DIIS
   @DF-RHF iter  14:  -224.76233952112031   -8.24230e-13   9.75191e-10 DIIS
   @DF-RHF iter  15:  -224.76233952112017    1.42109e-13   4.15548e-10 DIIS
   @DF-RHF iter  16:  -224.76233952112040   -2.27374e-13   1.25998e-10 DIIS
   @DF-RHF iter  17:  -224.76233952112065   -2.55795e-13   4.47779e-11 DIIS
  Energy and wave function converged.


  ==> Post-Iterations <==

    Orbital Energies [Eh]
    ---------------------

    Doubly Occupied:                                                      

       1A    -15.636223     2A    -15.592313     3A    -11.279894  
       4A    -11.237784     5A    -11.209891     6A     -1.386922  
       7A     -1.121901     8A     -1.066898     9A     -0.872768  
      10A     -0.837061    11A     -0.757292    12A     -0.645746  
      13A     -0.620834    14A     -0.609140    15A     -0.583920  
      16A     -0.461404    17A     -0.370721    18A     -0.346048  

    Virtual:                                                              

      19A      0.022218    20A      0.030764    21A      0.039572  
      22A      0.042368    23A      0.043674    24A      0.049159  
      25A      0.063520    26A      0.065387    27A      0.083526  
      28A      0.090272    29A      0.098503    30A      0.100998  
      31A      0.104029    32A      0.117179    33A      0.117924  
      34A      0.125404    35A      0.126270    36A      0.127821  
      37A      0.132930    38A      0.133069    39A      0.133684  
      40A      0.138403    41A      0.141490    42A      0.156889  
      43A      0.158142    44A      0.164592    45A      0.165498  
      46A      0.171075    47A      0.178408    48A      0.178721  
      49A      0.195012    50A      0.196042    51A      0.200997  
      52A      0.204793    53A      0.206162    54A      0.222457  
      55A      0.224692    56A      0.227813    57A      0.235088  
      58A      0.240236    59A      0.243626    60A      0.244965  
      61A      0.263618    62A      0.270506    63A      0.271127  
      64A      0.279080    65A      0.301010    66A      0.321476  
      67A      0.325148    68A      0.339642    69A      0.352358  
      70A      0.355357    71A      0.366086    72A      0.372480  
      73A      0.374907    74A      0.383297    75A      0.396061  
      76A      0.402741    77A      0.414998    78A      0.427014  
      79A      0.431627    80A      0.432132    81A      0.440771  
      82A      0.441912    83A      0.443385    84A      0.453393  
      85A      0.455534    86A      0.456986    87A      0.459816  
      88A      0.461425    89A      0.478655    90A      0.498543  
      91A      0.508690    92A      0.509269    93A      0.518940  
      94A      0.521917    95A      0.532659    96A      0.537624  
      97A      0.541560    98A      0.558877    99A      0.568321  
     100A      0.571421   101A      0.574432   102A      0.586318  
     103A      0.590538   104A      0.594751   105A      0.602413  
     106A      0.612952   107A      0.620800   108A      0.620953  
     109A      0.633092   110A      0.646110   111A      0.655295  
     112A      0.676161   113A      0.690410   114A      0.698041  
     115A      0.700391   116A      0.707375   117A      0.719012  
     118A      0.721667   119A      0.725115   120A      0.735241  
     121A      0.744957   122A      0.747709   123A      0.758592  
     124A      0.773318   125A      0.781481   126A      0.789264  
     127A      0.797667   128A      0.814032   129A      0.820512  
     130A      0.828504   131A      0.838230   132A      0.848393  
     133A      0.851534   134A      0.854671   135A      0.870614  
     136A      0.880661   137A      0.881395   138A      0.888767  
     139A      0.895267   140A      0.906950   141A      0.915716  
     142A      0.924815   143A      0.942582   144A      0.951669  
     145A      0.978222   146A      0.984850   147A      0.996766  
     148A      1.011149   149A      1.023797   150A      1.029826  
     151A      1.046606   152A      1.051236   153A      1.066503  
     154A      1.070752   155A      1.080632   156A      1.100852  
     157A      1.107786   158A      1.128058   159A      1.134196  
     160A      1.150235   161A      1.158402   162A      1.165919  
     163A      1.175168   164A      1.184616   165A      1.220548  
     166A      1.221316   167A      1.236654   168A      1.267624  
     169A      1.269556   170A      1.293346   171A      1.303342  
     172A      1.311399   173A      1.314789   174A      1.340341  
     175A      1.365807   176A      1.381491   177A      1.401043  
     178A      1.434622   179A      1.444351   180A      1.474691  
     181A      1.492858   182A      1.506659   183A      1.512027  
     184A      1.526129   185A      1.560989   186A      1.590882  
     187A      1.608669   188A      1.637437   189A      1.669472  
     190A      1.676356   191A      1.688533   192A      1.703634  
     193A      1.723950   194A      1.749215   195A      1.764373  
     196A      1.805048   197A      1.875632   198A      1.932390  
     199A      1.943558   200A      1.988067   201A      2.021445  
     202A      2.040774   203A      2.057611   204A      2.088839  
     205A      2.108759   206A      2.134540   207A      2.144687  
     208A      2.167835   209A      2.190005   210A      2.200827  
     211A      2.216332   212A      2.230457   213A      2.233566  
     214A      2.261565   215A      2.275825   216A      2.277465  
     217A      2.288961   218A      2.307640   219A      2.335392  
     220A      2.360716   221A      2.380289   222A      2.389130  
     223A      2.393822   224A      2.394223   225A      2.435246  
     226A      2.443569   227A      2.464967   228A      2.478027  
     229A      2.499616   230A      2.513236   231A      2.531798  
     232A      2.548517   233A      2.570232   234A      2.584716  
     235A      2.631022   236A      2.642961   237A      2.667191  
     238A      2.702677   239A      2.718573   240A      2.733029  
     241A      2.826838   242A      2.827608   243A      2.834751  
     244A      2.869443   245A      2.889723   246A      2.901587  
     247A      2.918598   248A      2.944834   249A      2.999157  
     250A      3.027752   251A      3.055324   252A      3.089509  
     253A      3.092358   254A      3.122730   255A      3.139730  
     256A      3.181653   257A      3.188930   258A      3.222008  
     259A      3.253809   260A      3.288867   261A      3.297865  
     262A      3.355426   263A      3.380235   264A      3.395268  
     265A      3.423133   266A      3.447988   267A      3.486848  
     268A      3.497212   269A      3.520727   270A      3.633236  
     271A      3.666619   272A      3.686563   273A      3.735305  
     274A      3.769739   275A      3.850796   276A      3.889327  
     277A      3.964091   278A      4.035163   279A      4.094423  
     280A      4.209428   281A      4.243759   282A      4.448113  
     283A      4.463235   284A      4.658087   285A      4.707699  
     286A      4.749631   287A      4.810456   288A      4.994553  
     289A      5.076475   290A      5.241135   291A      5.530926  
     292A      5.668612   293A      5.826524   294A      6.106376  
     295A      6.318053   296A      6.708090   297A      6.967533  
     298A     18.110909   299A     18.647571   300A     19.373306  
     301A     25.245215   302A     25.704600  

    Final Occupation by Irrep:
              A 
    DOCC [    18 ]

  @DF-RHF Final Energy:  -224.76233952112065

   => Energetics <=

    Nuclear Repulsion Energy =            166.6240564503272026
    One-Electron Energy =                -633.4992733842202597
    Two-Electron Energy =                 242.1128774127724057
    Total Energy =                       -224.7623395211206514

Computation Completed


Properties will be evaluated at   0.000000,   0.000000,   0.000000 [a0]

Properties computed using the SCF density matrix

  Nuclear Dipole Moment: [e a0]
     X:   162.5886      Y:  -104.5054      Z:    23.1563

  Electronic Dipole Moment: [e a0]
     X:  -162.9913      Y:   105.1370      Z:   -22.5767

  Dipole Moment: [e a0]
     X:    -0.4027      Y:     0.6317      Z:     0.5796     Total:     0.9472

  Dipole Moment: [D]
     X:    -1.0235      Y:     1.6055      Z:     1.4733     Total:     2.4075


*** tstop() called on ds1 at Mon Oct  4 15:44:04 2021
Module time:
	user time   =      15.60 seconds =       0.26 minutes
	system time =       0.32 seconds =       0.01 minutes
	total time  =          4 seconds =       0.07 minutes
Total time:
	user time   =      37.81 seconds =       0.63 minutes
	system time =       0.88 seconds =       0.01 minutes
	total time  =          9 seconds =       0.15 minutes

  //>>>>>>>>>>>>>>>>>>>>>>>>>>>>>>>>>>>//
  //            Monomer B HF           //
  //<<<<<<<<<<<<<<<<<<<<<<<<<<<<<<<<<<<//


*** tstart() called on ds1
*** at Mon Oct  4 15:44:04 2021

   => Loading Basis Set <=

    Name: AUG-CC-PVDZ
    Role: ORBITAL
    Keyword: BASIS
    atoms 1-2, 10-11 entry N          line   218 file /theoryfs2/ds/csargent/miniconda3/envs/cle/share/psi4/basis/aug-cc-pvdz.gbs 
    atoms 3-6, 12-15 entry H          line    40 file /theoryfs2/ds/csargent/miniconda3/envs/cle/share/psi4/basis/aug-cc-pvdz.gbs 
    atoms 7-9, 16-18 entry C          line   182 file /theoryfs2/ds/csargent/miniconda3/envs/cle/share/psi4/basis/aug-cc-pvdz.gbs 


         ---------------------------------------------------------
                                   SCF
               by Justin Turney, Rob Parrish, Andy Simmonett
                          and Daniel G. A. Smith
                              RHF Reference
                        6 Threads,   6675 MiB Core
         ---------------------------------------------------------

  ==> Geometry <==

    Molecular point group: c1
    Full point group: C1

    Geometry (in Bohr), charge = 0, multiplicity = 1:

       Center              X                  Y                   Z               Mass       
    ------------   -----------------  -----------------  -----------------  -----------------
      Gh(N)           6.279812100000    -4.253033720000     0.193138650000    14.003074004430
      Gh(N)           6.068707770000    -2.281256970000     1.805443170000    14.003074004430
      Gh(H)           3.668711560000    -5.646289410000    -1.966840010000     1.007825032230
      Gh(H)           0.690345210000    -2.375456940000    -0.428642360000     1.007825032230
      Gh(H)           3.359174420000     0.176506010000     3.092650170000     1.007825032230
      Gh(H)           7.352667820000    -1.994613110000     2.906807020000     1.007825032230
      Gh(C)           3.779525860000    -1.215084530000     1.768581720000    12.000000000000
      Gh(C)           2.382429980000    -2.555055380000     0.046076810000    12.000000000000
      Gh(C)           4.017714680000    -4.384104900000    -0.887618630000    12.000000000000
         N          -16.935473350000     7.640902520000    31.850725790000    14.003074004430
         N          -17.146577680000     9.612679260000    30.238421260000    14.003074004430
         H          -19.546573890000     6.247646820000    34.010704440000     1.007825032230
         H          -22.524940250000     9.518479290000    32.472506800000     1.007825032230
         H          -19.856111030000    12.070442250000    28.951214260000     1.007825032230
         H          -15.862617630000     9.899323130000    29.137057410000     1.007825032230
         C          -19.435759600000    10.678851710000    30.275282720000    12.000000000000
         C          -20.832855470000     9.338880850000    31.997787620000    12.000000000000
         C          -19.197570770000     7.509831340000    32.931483060000    12.000000000000

  Running in c1 symmetry.

  Rotational constants: A =      0.02852  B =      0.00062  C =      0.00061 [cm^-1]
  Rotational constants: A =    855.00082  B =     18.58045  C =     18.25496 [MHz]
  Nuclear repulsion =  166.624056425298477

  Charge       = 0
  Multiplicity = 1
  Electrons    = 36
  Nalpha       = 18
  Nbeta        = 18

  ==> Algorithm <==

  SCF Algorithm Type is DF.
  DIIS enabled.
  MOM disabled.
  Fractional occupation disabled.
  Guess Type is SAD.
  Energy threshold   = 1.00e-10
  Density threshold  = 1.00e-10
  Integral threshold = 1.00e-12

  ==> Primary Basis <==

  Basis Set: AUG-CC-PVDZ
    Blend: AUG-CC-PVDZ
    Number of shells: 130
    Number of basis functions: 302
    Number of Cartesian functions: 322
    Spherical Harmonics?: true
    Max angular momentum: 2

   => Loading Basis Set <=

    Name: (AUG-CC-PVDZ AUX)
    Role: JKFIT
    Keyword: DF_BASIS_SCF
    atoms 1-2, 10-11 entry N          line   212 file /theoryfs2/ds/csargent/miniconda3/envs/cle/share/psi4/basis/aug-cc-pvdz-jkfit.gbs 
    atoms 3-6, 12-15 entry H          line    70 file /theoryfs2/ds/csargent/miniconda3/envs/cle/share/psi4/basis/aug-cc-pvdz-jkfit.gbs 
    atoms 7-9, 16-18 entry C          line   154 file /theoryfs2/ds/csargent/miniconda3/envs/cle/share/psi4/basis/aug-cc-pvdz-jkfit.gbs 

  ==> Integral Setup <==

  ==> DiskDFJK: Density-Fitted J/K Matrices <==

    J tasked:                  Yes
    K tasked:                  Yes
    wK tasked:                  No
    OpenMP threads:              6
    Integrals threads:           6
    Memory [MiB]:             5006
    Algorithm:                Core
    Integral Cache:           LOAD
    Schwarz Cutoff:          1E-12
    Fitting Condition:       1E-10

   => Auxiliary Basis Set <=

  Basis Set: (AUG-CC-PVDZ AUX)
    Blend: AUG-CC-PVDZ-JKFIT
    Number of shells: 376
    Number of basis functions: 1116
    Number of Cartesian functions: 1290
    Spherical Harmonics?: true
    Max angular momentum: 3

  Minimum eigenvalue in the overlap matrix is 3.0333777072E-05.
  Reciprocal condition number of the overlap matrix is 2.4874860195E-06.
    Using symmetric orthogonalization.

  ==> Pre-Iterations <==

  SCF Guess: Superposition of Atomic Densities via on-the-fly atomic UHF (no occupation information).

   -------------------------
    Irrep   Nso     Nmo    
   -------------------------
     A        302     302 
   -------------------------
    Total     302     302
   -------------------------

  ==> Iterations <==

                           Total Energy        Delta E     RMS |[F,P]|

   @DF-RHF iter SAD:  -224.72194801380445   -2.24722e+02   0.00000e+00 
   @DF-RHF iter   1:  -224.63549170292492    8.64563e-02   1.50472e-03 DIIS
   @DF-RHF iter   2:  -224.73984613588152   -1.04354e-01   6.88462e-04 DIIS
   @DF-RHF iter   3:  -224.76075487506313   -2.09087e-02   1.48626e-04 DIIS
   @DF-RHF iter   4:  -224.76213931884831   -1.38444e-03   6.05310e-05 DIIS
   @DF-RHF iter   5:  -224.76231767360952   -1.78355e-04   1.19893e-05 DIIS
   @DF-RHF iter   6:  -224.76233463108372   -1.69575e-05   4.96772e-06 DIIS
   @DF-RHF iter   7:  -224.76233858712104   -3.95604e-06   2.18806e-06 DIIS
   @DF-RHF iter   8:  -224.76233934786336   -7.60742e-07   1.01700e-06 DIIS
   @DF-RHF iter   9:  -224.76233951550529   -1.67642e-07   2.83302e-07 DIIS
   @DF-RHF iter  10:  -224.76233952432588   -8.82059e-09   8.55547e-08 DIIS
   @DF-RHF iter  11:  -224.76233952501553   -6.89653e-10   1.99714e-08 DIIS
   @DF-RHF iter  12:  -224.76233952506158   -4.60432e-11   5.81092e-09 DIIS
   @DF-RHF iter  13:  -224.76233952506607   -4.49063e-12   2.83097e-09 DIIS
   @DF-RHF iter  14:  -224.76233952506669   -6.25278e-13   9.75191e-10 DIIS
   @DF-RHF iter  15:  -224.76233952506695   -2.55795e-13   4.15548e-10 DIIS
   @DF-RHF iter  16:  -224.76233952506701   -5.68434e-14   1.25997e-10 DIIS
   @DF-RHF iter  17:  -224.76233952506706   -5.68434e-14   4.47781e-11 DIIS
  Energy and wave function converged.


  ==> Post-Iterations <==

    Orbital Energies [Eh]
    ---------------------

    Doubly Occupied:                                                      

       1A    -15.636223     2A    -15.592313     3A    -11.279894  
       4A    -11.237784     5A    -11.209891     6A     -1.386922  
       7A     -1.121901     8A     -1.066898     9A     -0.872768  
      10A     -0.837061    11A     -0.757292    12A     -0.645746  
      13A     -0.620834    14A     -0.609140    15A     -0.583920  
      16A     -0.461404    17A     -0.370721    18A     -0.346048  

    Virtual:                                                              

      19A      0.022655    20A      0.030764    21A      0.039983  
      22A      0.042368    23A      0.044108    24A      0.049159  
      25A      0.063520    26A      0.065823    27A      0.083960  
      28A      0.090756    29A      0.098923    30A      0.100998  
      31A      0.104029    32A      0.117179    33A      0.118308  
      34A      0.125824    35A      0.126270    36A      0.128186  
      37A      0.133069    38A      0.133342    39A      0.134110  
      40A      0.138403    41A      0.141490    42A      0.156889  
      43A      0.158507    44A      0.164592    45A      0.165911  
      46A      0.171075    47A      0.178408    48A      0.179167  
      49A      0.195509    50A      0.196042    51A      0.201503  
      52A      0.204793    53A      0.206162    54A      0.222960  
      55A      0.225096    56A      0.228253    57A      0.235579  
      58A      0.240236    59A      0.243626    60A      0.244965  
      61A      0.264078    62A      0.270986    63A      0.271127  
      64A      0.279080    65A      0.301010    66A      0.321936  
      67A      0.325148    68A      0.340066    69A      0.352358  
      70A      0.355357    71A      0.366530    72A      0.372886  
      73A      0.374907    74A      0.383720    75A      0.396061  
      76A      0.402741    77A      0.414998    78A      0.427476  
      79A      0.432049    80A      0.432132    81A      0.441156  
      82A      0.442303    83A      0.443385    84A      0.453393  
      85A      0.456009    86A      0.457419    87A      0.459816  
      88A      0.461886    89A      0.478655    90A      0.498543  
      91A      0.508690    92A      0.509712    93A      0.519426  
      94A      0.521917    95A      0.533140    96A      0.538039  
      97A      0.541560    98A      0.559323    99A      0.568828  
     100A      0.571826   101A      0.574432   102A      0.586318  
     103A      0.590538   104A      0.595161   105A      0.602413  
     106A      0.613372   107A      0.620953   108A      0.621259  
     109A      0.633532   110A      0.646110   111A      0.655295  
     112A      0.676162   113A      0.690830   114A      0.698041  
     115A      0.700391   116A      0.707821   117A      0.719450  
     118A      0.721667   119A      0.725115   120A      0.735665  
     121A      0.745380   122A      0.747709   123A      0.758592  
     124A      0.773318   125A      0.781481   126A      0.789723  
     127A      0.798119   128A      0.814445   129A      0.820950  
     130A      0.828504   131A      0.838230   132A      0.848394  
     133A      0.851940   134A      0.855100   135A      0.871022  
     136A      0.881086   137A      0.881395   138A      0.888767  
     139A      0.895707   140A      0.906950   141A      0.916164  
     142A      0.924815   143A      0.942582   144A      0.952132  
     145A      0.978222   146A      0.984850   147A      0.997214  
     148A      1.011149   149A      1.024227   150A      1.030302  
     151A      1.046606   152A      1.051699   153A      1.066503  
     154A      1.071149   155A      1.081044   156A      1.100852  
     157A      1.108263   158A      1.128058   159A      1.134196  
     160A      1.150235   161A      1.158883   162A      1.166388  
     163A      1.175168   164A      1.185060   165A      1.220548  
     166A      1.221819   167A      1.237126   168A      1.268096  
     169A      1.269556   170A      1.293850   171A      1.303342  
     172A      1.311399   173A      1.315248   174A      1.340788  
     175A      1.365807   176A      1.381945   177A      1.401043  
     178A      1.435114   179A      1.444838   180A      1.474691  
     181A      1.493334   182A      1.507143   183A      1.512027  
     184A      1.526129   185A      1.560989   186A      1.590882  
     187A      1.608669   188A      1.637437   189A      1.669472  
     190A      1.676839   191A      1.689025   192A      1.703634  
     193A      1.723950   194A      1.749215   195A      1.764373  
     196A      1.805048   197A      1.875632   198A      1.932390  
     199A      1.943558   200A      1.988067   201A      2.021445  
     202A      2.041183   203A      2.057611   204A      2.088839  
     205A      2.109175   206A      2.134955   207A      2.144687  
     208A      2.168216   209A      2.190005   210A      2.200827  
     211A      2.216755   212A      2.230457   213A      2.233969  
     214A      2.261980   215A      2.275825   216A      2.277879  
     217A      2.289380   218A      2.307640   219A      2.335819  
     220A      2.360716   221A      2.380708   222A      2.389130  
     223A      2.393822   224A      2.394651   225A      2.435246  
     226A      2.443990   227A      2.464967   228A      2.478435  
     229A      2.500005   230A      2.513759   231A      2.531798  
     232A      2.548925   233A      2.570232   234A      2.584716  
     235A      2.631463   236A      2.642961   237A      2.667645  
     238A      2.703143   239A      2.719008   240A      2.733029  
     241A      2.826838   242A      2.828036   243A      2.834751  
     244A      2.869930   245A      2.890145   246A      2.901587  
     247A      2.918598   248A      2.945282   249A      2.999157  
     250A      3.028189   251A      3.055324   252A      3.089959  
     253A      3.092358   254A      3.122730   255A      3.140158  
     256A      3.182109   257A      3.188930   258A      3.222008  
     259A      3.254280   260A      3.289344   261A      3.297865  
     262A      3.355908   263A      3.380235   264A      3.395748  
     265A      3.423629   266A      3.448439   267A      3.487297  
     268A      3.497634   269A      3.520727   270A      3.633723  
     271A      3.667090   272A      3.686563   273A      3.735756  
     274A      3.770231   275A      3.851306   276A      3.889327  
     277A      3.964528   278A      4.035669   279A      4.094901  
     280A      4.209428   281A      4.244227   282A      4.448579  
     283A      4.463235   284A      4.658585   285A      4.708192  
     286A      4.750067   287A      4.810929   288A      4.995011  
     289A      5.076956   290A      5.241592   291A      5.531396  
     292A      5.669111   293A      5.826988   294A      6.106855  
     295A      6.318454   296A      6.708533   297A      6.968027  
     298A     18.111319   299A     18.648002   300A     19.373718  
     301A     25.245723   302A     25.705114  

    Final Occupation by Irrep:
              A 
    DOCC [    18 ]

  @DF-RHF Final Energy:  -224.76233952506706

   => Energetics <=

    Nuclear Repulsion Energy =            166.6240564252984768
    One-Electron Energy =                -633.4992733563055936
    Two-Electron Energy =                 242.1128774059400541
    Total Energy =                       -224.7623395250670626

Computation Completed


Properties will be evaluated at   0.000000,   0.000000,   0.000000 [a0]

Properties computed using the SCF density matrix

  Nuclear Dipole Moment: [e a0]
     X:  -673.1617      Y:   323.6763      Z:  1130.4228

  Electronic Dipole Moment: [e a0]
     X:   672.7590      Y:  -323.0447      Z: -1131.0025

  Dipole Moment: [e a0]
     X:    -0.4027      Y:     0.6317      Z:    -0.5796     Total:     0.9472

  Dipole Moment: [D]
     X:    -1.0235      Y:     1.6055      Z:    -1.4733     Total:     2.4075


*** tstop() called on ds1 at Mon Oct  4 15:44:07 2021
Module time:
	user time   =      15.87 seconds =       0.26 minutes
	system time =       0.38 seconds =       0.01 minutes
	total time  =          3 seconds =       0.05 minutes
Total time:
	user time   =      53.73 seconds =       0.90 minutes
	system time =       1.27 seconds =       0.02 minutes
	total time  =         12 seconds =       0.20 minutes
  Constructing Basis Sets for SAPT...

   => Loading Basis Set <=

    Name: (AUG-CC-PVDZ AUX)
    Role: RIFIT
    Keyword: DF_BASIS_SAPT
    atoms 1-2, 10-11 entry N          line   158 file /theoryfs2/ds/csargent/miniconda3/envs/cle/share/psi4/basis/aug-cc-pvdz-ri.gbs 
    atoms 3-6, 12-15 entry H          line    30 file /theoryfs2/ds/csargent/miniconda3/envs/cle/share/psi4/basis/aug-cc-pvdz-ri.gbs 
    atoms 7-9, 16-18 entry C          line   112 file /theoryfs2/ds/csargent/miniconda3/envs/cle/share/psi4/basis/aug-cc-pvdz-ri.gbs 


  //>>>>>>>>>>>>>>>>>>>>>>>>>>>>>>>>>>>//
  //               SAPT0               //
  //<<<<<<<<<<<<<<<<<<<<<<<<<<<<<<<<<<<//


*** tstart() called on ds1
*** at Mon Oct  4 15:44:07 2021

        SAPT0  
    Ed Hohenstein
     6 June 2009

      Orbital Information
  --------------------------
    NSO        =       302
    NMO        =       302
    NRI        =       904
    NOCC A     =        18
    NOCC B     =        18
    FOCC A     =         5
    FOCC B     =         5
    NVIR A     =       284
    NVIR B     =       284

    Elst10,r            =     0.000008187842 [Eh]
    Exch10              =     0.000000000000 [Eh]
    Exch10 (S^2)        =     0.000000000000 [Eh]

    Iter     Energy [mEh]          dE [mEh]         Residual      Time [s]
       1      -0.00000687       0.000006874       0.027789399             0
       2      -0.00000631      -0.000000563       0.007054063             0
       3      -0.00000681       0.000000497       0.003340821             1
       4      -0.00000698       0.000000168       0.000809299             1
       5      -0.00000695      -0.000000025       0.000497365             1
       6      -0.00000694      -0.000000009       0.000165673             1
       7      -0.00000695       0.000000003       0.000058395             1
       8      -0.00000695       0.000000001       0.000022576             1
       9      -0.00000695      -0.000000000       0.000006343             1
      10      -0.00000695      -0.000000000       0.000001958             1
      11      -0.00000695       0.000000000       0.000000804             2

    CHF Iterations converged


    Iter     Energy [mEh]          dE [mEh]         Residual      Time [s]
       1      -0.00001526       0.000015259       0.045244717             0
       2      -0.00001377      -0.000001485       0.009911776             0
       3      -0.00001505       0.000001277       0.003579739             0
       4      -0.00001520       0.000000148       0.001164775             0
       5      -0.00001518      -0.000000024       0.000630841             0
       6      -0.00001515      -0.000000021       0.000204605             0
       7      -0.00001515       0.000000000       0.000083068             0
       8      -0.00001516       0.000000003       0.000033473             1
       9      -0.00001516       0.000000000       0.000010464             1
      10      -0.00001516      -0.000000000       0.000002731             1
      11      -0.00001516       0.000000000       0.000001285             1
      12      -0.00001516       0.000000000       0.000000422             1

    CHF Iterations converged

    Ind20,r (A<-B)      =    -0.000000006946 [Eh]
    Ind20,r (B<-A)      =    -0.000000015157 [Eh]
    Ind20,r             =    -0.000000022103 [Eh]
    Exch-Ind20,r (A<-B) =     0.000000000000 [Eh]
    Exch-Ind20,r (B<-A) =     0.000000000000 [Eh]
    Exch-Ind20,r        =     0.000000000000 [Eh]
    Disp20              =    -0.000000272897 [Eh]
    Disp20 (SS)         =    -0.000000136448 [Eh]
    Disp20 (OS)         =    -0.000000136448 [Eh]
    Exch-Disp20         =     0.000000000000 [Eh]
    Exch-Disp20 (SS)    =     0.000000000000 [Eh]
    Exch-Disp20 (OS)    =     0.000000000000 [Eh]

    SAPT Results 
  --------------------------------------------------------------------------------------------------------
    Electrostatics                  0.00818784 [mEh]       0.00513795 [kcal/mol]       0.02149718 [kJ/mol]
      Elst10,r                      0.00818784 [mEh]       0.00513795 [kcal/mol]       0.02149718 [kJ/mol]

    Exchange                        0.00000000 [mEh]       0.00000000 [kcal/mol]       0.00000000 [kJ/mol]
      Exch10                        0.00000000 [mEh]       0.00000000 [kcal/mol]       0.00000000 [kJ/mol]
      Exch10(S^2)                   0.00000000 [mEh]       0.00000000 [kcal/mol]       0.00000000 [kJ/mol]

    Induction                       0.00002216 [mEh]       0.00001390 [kcal/mol]       0.00005817 [kJ/mol]
      Ind20,r                      -0.00002210 [mEh]      -0.00001387 [kcal/mol]      -0.00005803 [kJ/mol]
      Exch-Ind20,r                  0.00000000 [mEh]       0.00000000 [kcal/mol]       0.00000000 [kJ/mol]
      delta HF,r (2)                0.00004426 [mEh]       0.00002777 [kcal/mol]       0.00011620 [kJ/mol]

    Dispersion                     -0.00027290 [mEh]      -0.00017125 [kcal/mol]      -0.00071649 [kJ/mol]
      Disp20                       -0.00027290 [mEh]      -0.00017125 [kcal/mol]      -0.00071649 [kJ/mol]
      Exch-Disp20                   0.00000000 [mEh]       0.00000000 [kcal/mol]       0.00000000 [kJ/mol]
      Disp20 (SS)                  -0.00013645 [mEh]      -0.00008562 [kcal/mol]      -0.00035825 [kJ/mol]
      Disp20 (OS)                  -0.00013645 [mEh]      -0.00008562 [kcal/mol]      -0.00035825 [kJ/mol]
      Exch-Disp20 (SS)              0.00000000 [mEh]       0.00000000 [kcal/mol]       0.00000000 [kJ/mol]
      Exch-Disp20 (OS)              0.00000000 [mEh]       0.00000000 [kcal/mol]       0.00000000 [kJ/mol]

  Total HF                          0.00821000 [mEh]       0.00515185 [kcal/mol]       0.02155535 [kJ/mol]
  Total SAPT0                       0.00793710 [mEh]       0.00498061 [kcal/mol]       0.02083886 [kJ/mol]

  Special recipe for scaled SAPT0 (see Manual):
    Electrostatics sSAPT0           0.00818784 [mEh]       0.00513795 [kcal/mol]       0.02149718 [kJ/mol]
    Exchange sSAPT0                 0.00000000 [mEh]       0.00000000 [kcal/mol]       0.00000000 [kJ/mol]
    Induction sSAPT0                0.00002216 [mEh]       0.00001390 [kcal/mol]       0.00005817 [kJ/mol]
    Dispersion sSAPT0              -0.00027290 [mEh]      -0.00017125 [kcal/mol]      -0.00071649 [kJ/mol]
  Total sSAPT0                      0.00793710 [mEh]       0.00498061 [kcal/mol]       0.02083886 [kJ/mol]
  --------------------------------------------------------------------------------------------------------

*** tstop() called on ds1 at Mon Oct  4 15:44:17 2021
Module time:
	user time   =      44.82 seconds =       0.75 minutes
	system time =       3.87 seconds =       0.06 minutes
	total time  =         10 seconds =       0.17 minutes
Total time:
	user time   =      99.52 seconds =       1.66 minutes
	system time =       5.17 seconds =       0.09 minutes
	total time  =         22 seconds =       0.37 minutes


Warning! sapt0 does not have an associated derived wavefunction.The returned wavefunction is the dimer SCF wavefunction.


    Psi4 stopped on: Monday, 04 October 2021 03:44PM
    Psi4 wall time for execution: 0:00:21.28

*** Psi4 exiting successfully. Buy a developer a beer!
