
    -----------------------------------------------------------------------
          Psi4: An Open-Source Ab Initio Electronic Structure Package
                               Psi4 1.4rc3 

                         Git: Rev {HEAD} 080dba6 


    D. G. A. Smith, L. A. Burns, A. C. Simmonett, R. M. Parrish,
    M. C. Schieber, R. Galvelis, P. Kraus, H. Kruse, R. Di Remigio,
    A. Alenaizan, A. M. James, S. Lehtola, J. P. Misiewicz, M. Scheurer,
    R. A. Shaw, J. B. Schriber, Y. Xie, Z. L. Glick, D. A. Sirianni,
    J. S. O'Brien, J. M. Waldrop, A. Kumar, E. G. Hohenstein,
    B. P. Pritchard, B. R. Brooks, H. F. Schaefer III, A. Yu. Sokolov,
    K. Patkowski, A. E. DePrince III, U. Bozkaya, R. A. King,
    F. A. Evangelista, J. M. Turney, T. D. Crawford, C. D. Sherrill,
    J. Chem. Phys. 152(18) 184108 (2020). https://doi.org/10.1063/5.0006002

                            Additional Code Authors
    E. T. Seidl, C. L. Janssen, E. F. Valeev, M. L. Leininger,
    J. F. Gonthier, R. M. Richard, H. R. McAlexander, M. Saitow, X. Wang,
    P. Verma, and M. H. Lechner

             Previous Authors, Complete List of Code Contributors,
                       and Citations for Specific Modules
    https://github.com/psi4/psi4/blob/master/codemeta.json
    https://github.com/psi4/psi4/graphs/contributors
    http://psicode.org/psi4manual/master/introduction.html#citing-psifour

    -----------------------------------------------------------------------


    Psi4 started on: Monday, 04 October 2021 01:43PM

    Process ID: 8538
    Host:       ds1
    PSIDATADIR: /theoryfs2/ds/csargent/miniconda3/envs/cle/share/psi4
    Memory:     500.0 MiB
    Threads:    6
    
  ==> Input File <==

--------------------------------------------------------------------------
# PSI4 file produced by CrystaLattE

# Generated from:               pyrazole.xyz
# Psithon input for N-mer:      2mer-0+106
# Number of atoms per monomer:  [9, 9]
# Number of replicas:           2
# COM priority:                 6.129245124161e-05
# Minimum COM separations:      13.421 
# Separation priority:          9.818426070937e-05
# Minimum monomer separations:  11.471 
# Cutoff priority:              4.529558077739e-06
# Nuclear repulsion energy:     384.1648326587062

memory 7 GB

molecule Dimer_0_106 {
  N            6.27981210      -4.25303372       0.19313865 
  N            6.06870777      -2.28125697       1.80544317 
  H            3.66871156      -5.64628941      -1.96684001 
  H            0.69034521      -2.37545694      -0.42864236 
  H            3.35917442       0.17650601       3.09265017 
  H            7.35266782      -1.99461311       2.90680702 
  C            3.77952586      -1.21508453       1.76858172 
  C            2.38242998      -2.55505538       0.04607681 
  C            4.01771468      -4.38410490      -0.88761863 
--
  N           -9.19704487      -7.53338133      19.39181122 
  N           -9.40814920      -9.50515808      21.00411574 
  H          -11.80814541      -6.14012564      17.23183256 
  H          -14.78651176      -9.41095811      18.77003021 
  H          -12.11768255     -11.96292106      22.29132274 
  H           -8.12418914      -9.79180194      22.10547959 
  C          -11.69733111     -10.57133052      20.96725429 
  C          -13.09442699      -9.23135967      19.24474939 
  C          -11.45914228      -7.40231015      18.31105394 
units = au
no_com
no_reorient
}

set {
  e_convergence 10
  d_convergence 10
  scf_type df
  mp2_type df
  cc_type df
  freeze_core true
}

energy('sapt0/aug-cc-pvdz')

--------------------------------------------------------------------------

  Memory set to   6.519 GiB by Python driver.

Scratch directory: /scratch/csargent/psi4.7158.66302/

Scratch directory: /scratch/csargent/psi4.7158.66302/

  //>>>>>>>>>>>>>>>>>>>>>>>>>>>>>>>>>>>//
  //              Dimer HF             //
  //<<<<<<<<<<<<<<<<<<<<<<<<<<<<<<<<<<<//


*** tstart() called on ds1
*** at Mon Oct  4 13:43:24 2021

   => Loading Basis Set <=

    Name: AUG-CC-PVDZ
    Role: ORBITAL
    Keyword: BASIS
    atoms 1-2, 10-11 entry N          line   218 file /theoryfs2/ds/csargent/miniconda3/envs/cle/share/psi4/basis/aug-cc-pvdz.gbs 
    atoms 3-6, 12-15 entry H          line    40 file /theoryfs2/ds/csargent/miniconda3/envs/cle/share/psi4/basis/aug-cc-pvdz.gbs 
    atoms 7-9, 16-18 entry C          line   182 file /theoryfs2/ds/csargent/miniconda3/envs/cle/share/psi4/basis/aug-cc-pvdz.gbs 


         ---------------------------------------------------------
                                   SCF
               by Justin Turney, Rob Parrish, Andy Simmonett
                          and Daniel G. A. Smith
                              RHF Reference
                        6 Threads,   6675 MiB Core
         ---------------------------------------------------------

  ==> Geometry <==

    Molecular point group: c1
    Full point group: C1

    Geometry (in Bohr), charge = 0, multiplicity = 1:

       Center              X                  Y                   Z               Mass       
    ------------   -----------------  -----------------  -----------------  -----------------
         N            6.279812100000    -4.253033720000     0.193138650000    14.003074004430
         N            6.068707770000    -2.281256970000     1.805443170000    14.003074004430
         H            3.668711560000    -5.646289410000    -1.966840010000     1.007825032230
         H            0.690345210000    -2.375456940000    -0.428642360000     1.007825032230
         H            3.359174420000     0.176506010000     3.092650170000     1.007825032230
         H            7.352667820000    -1.994613110000     2.906807020000     1.007825032230
         C            3.779525860000    -1.215084530000     1.768581720000    12.000000000000
         C            2.382429980000    -2.555055380000     0.046076810000    12.000000000000
         C            4.017714680000    -4.384104900000    -0.887618630000    12.000000000000
         N           -9.197044870000    -7.533381330000    19.391811220000    14.003074004430
         N           -9.408149200000    -9.505158080000    21.004115740000    14.003074004430
         H          -11.808145410000    -6.140125640000    17.231832560000     1.007825032230
         H          -14.786511760000    -9.410958110000    18.770030210000     1.007825032230
         H          -12.117682550000   -11.962921060000    22.291322740000     1.007825032230
         H           -8.124189140000    -9.791801940000    22.105479590000     1.007825032230
         C          -11.697331110000   -10.571330520000    20.967254290000    12.000000000000
         C          -13.094426990000    -9.231359670000    19.244749390000    12.000000000000
         C          -11.459142280000    -7.402310150000    18.311053940000    12.000000000000

  Running in c1 symmetry.

  Rotational constants: A =      0.02330  B =      0.00148  C =      0.00141 [cm^-1]
  Rotational constants: A =    698.53909  B =     44.42637  C =     42.27349 [MHz]
  Nuclear repulsion =  384.164832701167995

  Charge       = 0
  Multiplicity = 1
  Electrons    = 72
  Nalpha       = 36
  Nbeta        = 36

  ==> Algorithm <==

  SCF Algorithm Type is DF.
  DIIS enabled.
  MOM disabled.
  Fractional occupation disabled.
  Guess Type is SAD.
  Energy threshold   = 1.00e-10
  Density threshold  = 1.00e-10
  Integral threshold = 1.00e-12

  ==> Primary Basis <==

  Basis Set: AUG-CC-PVDZ
    Blend: AUG-CC-PVDZ
    Number of shells: 130
    Number of basis functions: 302
    Number of Cartesian functions: 322
    Spherical Harmonics?: true
    Max angular momentum: 2

   => Loading Basis Set <=

    Name: (AUG-CC-PVDZ AUX)
    Role: JKFIT
    Keyword: DF_BASIS_SCF
    atoms 1-2, 10-11 entry N          line   212 file /theoryfs2/ds/csargent/miniconda3/envs/cle/share/psi4/basis/aug-cc-pvdz-jkfit.gbs 
    atoms 3-6, 12-15 entry H          line    70 file /theoryfs2/ds/csargent/miniconda3/envs/cle/share/psi4/basis/aug-cc-pvdz-jkfit.gbs 
    atoms 7-9, 16-18 entry C          line   154 file /theoryfs2/ds/csargent/miniconda3/envs/cle/share/psi4/basis/aug-cc-pvdz-jkfit.gbs 

  ==> Integral Setup <==

  ==> DiskDFJK: Density-Fitted J/K Matrices <==

    J tasked:                  Yes
    K tasked:                  Yes
    wK tasked:                  No
    OpenMP threads:              6
    Integrals threads:           6
    Memory [MiB]:             5006
    Algorithm:                Core
    Integral Cache:           SAVE
    Schwarz Cutoff:          1E-12
    Fitting Condition:       1E-10

   => Auxiliary Basis Set <=

  Basis Set: (AUG-CC-PVDZ AUX)
    Blend: AUG-CC-PVDZ-JKFIT
    Number of shells: 376
    Number of basis functions: 1116
    Number of Cartesian functions: 1290
    Spherical Harmonics?: true
    Max angular momentum: 3

  Minimum eigenvalue in the overlap matrix is 3.0326375168E-05.
  Reciprocal condition number of the overlap matrix is 2.4868648638E-06.
    Using symmetric orthogonalization.

  ==> Pre-Iterations <==

  SCF Guess: Superposition of Atomic Densities via on-the-fly atomic UHF (no occupation information).

   -------------------------
    Irrep   Nso     Nmo    
   -------------------------
     A        302     302 
   -------------------------
    Total     302     302
   -------------------------

  ==> Iterations <==

                           Total Energy        Delta E     RMS |[F,P]|

   @DF-RHF iter SAD:  -449.44389603688700   -4.49444e+02   0.00000e+00 
   @DF-RHF iter   1:  -449.27106355525643    1.72832e-01   2.12803e-03 DIIS
   @DF-RHF iter   2:  -449.47972389308188   -2.08660e-01   9.73871e-04 DIIS
   @DF-RHF iter   3:  -449.52155842152064   -4.18345e-02   2.10395e-04 DIIS
   @DF-RHF iter   4:  -449.52432903466695   -2.77061e-03   8.58453e-05 DIIS
   @DF-RHF iter   5:  -449.52468746886103   -3.58434e-04   1.69727e-05 DIIS
   @DF-RHF iter   6:  -449.52472140680942   -3.39379e-05   7.03825e-06 DIIS
   @DF-RHF iter   7:  -449.52472930792794   -7.90112e-06   3.13425e-06 DIIS
   @DF-RHF iter   8:  -449.52473085181936   -1.54389e-06   1.43918e-06 DIIS
   @DF-RHF iter   9:  -449.52473119161590   -3.39797e-07   4.02248e-07 DIIS
   @DF-RHF iter  10:  -449.52473120948372   -1.78678e-08   1.20429e-07 DIIS
   @DF-RHF iter  11:  -449.52473121085768   -1.37396e-09   2.81602e-08 DIIS
   @DF-RHF iter  12:  -449.52473121094908   -9.14042e-11   8.18586e-09 DIIS
   @DF-RHF iter  13:  -449.52473121095841   -9.32232e-12   3.97275e-09 DIIS
   @DF-RHF iter  14:  -449.52473121095966   -1.25056e-12   1.36312e-09 DIIS
   @DF-RHF iter  15:  -449.52473121095989   -2.27374e-13   5.83901e-10 DIIS
   @DF-RHF iter  16:  -449.52473121095954    3.41061e-13   1.78430e-10 DIIS
   @DF-RHF iter  17:  -449.52473121095915    3.97904e-13   6.37434e-11 DIIS
  Energy and wave function converged.


  ==> Post-Iterations <==

    Orbital Energies [Eh]
    ---------------------

    Doubly Occupied:                                                      

       1A    -15.636794     2A    -15.634790     3A    -15.592921  
       4A    -15.590907     5A    -11.280445     6A    -11.278419  
       7A    -11.238403     8A    -11.236395     9A    -11.210443  
      10A    -11.208428    11A     -1.387503    12A     -1.385495  
      13A     -1.122493    14A     -1.120485    15A     -1.067462  
      16A     -1.065447    17A     -0.873353    18A     -0.871351  
      19A     -0.837647    20A     -0.835635    21A     -0.757844  
      22A     -0.755813    23A     -0.646330    24A     -0.644327  
      25A     -0.621412    26A     -0.619401    27A     -0.609715  
      28A     -0.607710    29A     -0.584487    30A     -0.582462  
      31A     -0.462033    32A     -0.460019    33A     -0.371313  
      34A     -0.369311    35A     -0.346614    36A     -0.344595  

    Virtual:                                                              

      37A      0.030384    38A      0.032323    39A      0.041743  
      40A      0.043716    41A      0.048123    42A      0.050938  
      43A      0.063013    44A      0.064847    45A      0.100541  
      46A      0.102442    47A      0.103577    48A      0.105399  
      49A      0.116526    50A      0.118543    51A      0.125722  
      52A      0.127740    53A      0.132484    54A      0.134563  
      55A      0.137868    56A      0.139430    57A      0.141230  
      58A      0.143088    59A      0.156387    60A      0.157993  
      61A      0.164322    62A      0.166002    63A      0.170513  
      64A      0.172502    65A      0.178164    66A      0.179912  
      67A      0.195455    68A      0.197631    69A      0.204255  
      70A      0.205626    71A      0.206273    72A      0.207534  
      73A      0.239584    74A      0.241652    75A      0.243060  
      76A      0.244257    77A      0.245115    78A      0.246285  
      79A      0.270479    80A      0.272490    81A      0.278569  
      82A      0.280560    83A      0.300182    84A      0.302227  
      85A      0.324619    86A      0.326665    87A      0.351822  
      88A      0.353787    89A      0.354756    90A      0.356855  
      91A      0.374379    92A      0.376455    93A      0.395462  
      94A      0.397687    95A      0.402236    96A      0.404200  
      97A      0.414477    98A      0.416426    99A      0.431604  
     100A      0.433584   101A      0.442896   102A      0.444685  
     103A      0.452780   104A      0.454778   105A      0.459209  
     106A      0.461295   107A      0.478131   108A      0.480196  
     109A      0.497974   110A      0.499958   111A      0.508086  
     112A      0.510080   113A      0.521385   114A      0.523439  
     115A      0.540812   116A      0.543378   117A      0.573876  
     118A      0.575867   119A      0.585792   120A      0.587814  
     121A      0.589998   122A      0.591997   123A      0.601893  
     124A      0.603902   125A      0.620391   126A      0.622400  
     127A      0.645543   128A      0.647566   129A      0.654754  
     130A      0.656769   131A      0.675596   132A      0.677614  
     133A      0.697468   134A      0.699454   135A      0.699823  
     136A      0.701827   137A      0.721082   138A      0.723102  
     139A      0.724573   140A      0.726612   141A      0.747121  
     142A      0.749161   143A      0.758001   144A      0.760024  
     145A      0.772746   146A      0.774741   147A      0.780931  
     148A      0.782942   149A      0.827882   150A      0.829870  
     151A      0.837669   152A      0.839678   153A      0.847798  
     154A      0.849906   155A      0.880838   156A      0.882816  
     157A      0.888228   158A      0.890255   159A      0.906366  
     160A      0.908380   161A      0.924238   162A      0.926241  
     163A      0.942008   164A      0.944015   165A      0.977633  
     166A      0.979655   167A      0.984289   168A      0.986285  
     169A      1.010498   170A      1.012507   171A      1.046002  
     172A      1.047988   173A      1.065944   174A      1.067961  
     175A      1.100286   176A      1.102292   177A      1.127400  
     178A      1.129609   179A      1.133610   180A      1.135666  
     181A      1.149674   182A      1.151715   183A      1.174587  
     184A      1.176573   185A      1.219947   186A      1.221956  
     187A      1.268966   188A      1.271028   189A      1.302751  
     190A      1.304739   191A      1.310800   192A      1.312826  
     193A      1.365204   194A      1.367225   195A      1.400465  
     196A      1.402480   197A      1.474097   198A      1.476088  
     199A      1.511460   200A      1.513476   201A      1.525564  
     202A      1.527573   203A      1.560410   204A      1.562418  
     205A      1.590337   206A      1.592382   207A      1.608092  
     208A      1.610135   209A      1.636864   210A      1.638953  
     211A      1.668916   212A      1.670986   213A      1.703059  
     214A      1.705141   215A      1.723375   216A      1.725423  
     217A      1.748622   218A      1.750652   219A      1.763808  
     220A      1.765848   221A      1.804456   222A      1.806477  
     223A      1.875079   224A      1.877110   225A      1.931804  
     226A      1.933841   227A      1.943004   228A      1.945020  
     229A      1.987468   230A      1.989497   231A      2.020866  
     232A      2.022875   233A      2.057048   234A      2.059053  
     235A      2.088284   236A      2.090294   237A      2.144105  
     238A      2.146124   239A      2.189451   240A      2.191462  
     241A      2.200245   242A      2.202259   243A      2.229881  
     244A      2.231911   245A      2.275235   246A      2.277241  
     247A      2.307081   248A      2.309082   249A      2.360127  
     250A      2.362146   251A      2.388514   252A      2.390649  
     253A      2.393264   254A      2.395266   255A      2.434663  
     256A      2.436666   257A      2.464401   258A      2.466395  
     259A      2.531220   260A      2.533234   261A      2.569647  
     262A      2.571657   263A      2.584145   264A      2.586156  
     265A      2.642389   266A      2.644407   267A      2.732488  
     268A      2.734507   269A      2.826239   270A      2.828248  
     271A      2.834160   272A      2.836173   273A      2.901009  
     274A      2.903015   275A      2.918038   276A      2.920036  
     277A      2.998589   278A      3.000596   279A      3.054759  
     280A      3.056769   281A      3.091757   282A      3.093771  
     283A      3.122154   284A      3.124188   285A      3.188304  
     286A      3.190405   287A      3.221432   288A      3.223436  
     289A      3.297261   290A      3.299260   291A      3.379687  
     292A      3.381703   293A      3.520139   294A      3.522147  
     295A      3.685982   296A      3.687986   297A      3.888739  
     298A      3.890757   299A      4.208790   300A      4.210924  
     301A      4.462665   302A      4.464684  

    Final Occupation by Irrep:
              A 
    DOCC [    36 ]

  @DF-RHF Final Energy:  -449.52473121095915

   => Energetics <=

    Nuclear Repulsion Energy =            384.1648327011679953
    One-Electron Energy =               -1368.8627283327004989
    Two-Electron Energy =                 535.1731644205732437
    Total Energy =                       -449.5247312109592031

Computation Completed


Properties will be evaluated at   0.000000,   0.000000,   0.000000 [a0]

Properties computed using the SCF density matrix

  Nuclear Dipole Moment: [e a0]
     X:  -231.9897      Y:  -424.3109      Z:   737.4648

  Electronic Dipole Moment: [e a0]
     X:   231.1808      Y:   424.3088      Z:  -736.3007

  Dipole Moment: [e a0]
     X:    -0.8090      Y:    -0.0021      Z:     1.1641     Total:     1.4176

  Dipole Moment: [D]
     X:    -2.0562      Y:    -0.0054      Z:     2.9588     Total:     3.6031


*** tstop() called on ds1 at Mon Oct  4 13:43:29 2021
Module time:
	user time   =      25.03 seconds =       0.42 minutes
	system time =       0.58 seconds =       0.01 minutes
	total time  =          5 seconds =       0.08 minutes
Total time:
	user time   =      25.03 seconds =       0.42 minutes
	system time =       0.58 seconds =       0.01 minutes
	total time  =          5 seconds =       0.08 minutes

  //>>>>>>>>>>>>>>>>>>>>>>>>>>>>>>>>>>>//
  //            Monomer A HF           //
  //<<<<<<<<<<<<<<<<<<<<<<<<<<<<<<<<<<<//


*** tstart() called on ds1
*** at Mon Oct  4 13:43:29 2021

   => Loading Basis Set <=

    Name: AUG-CC-PVDZ
    Role: ORBITAL
    Keyword: BASIS
    atoms 1-2, 10-11 entry N          line   218 file /theoryfs2/ds/csargent/miniconda3/envs/cle/share/psi4/basis/aug-cc-pvdz.gbs 
    atoms 3-6, 12-15 entry H          line    40 file /theoryfs2/ds/csargent/miniconda3/envs/cle/share/psi4/basis/aug-cc-pvdz.gbs 
    atoms 7-9, 16-18 entry C          line   182 file /theoryfs2/ds/csargent/miniconda3/envs/cle/share/psi4/basis/aug-cc-pvdz.gbs 


         ---------------------------------------------------------
                                   SCF
               by Justin Turney, Rob Parrish, Andy Simmonett
                          and Daniel G. A. Smith
                              RHF Reference
                        6 Threads,   6675 MiB Core
         ---------------------------------------------------------

  ==> Geometry <==

    Molecular point group: c1
    Full point group: C1

    Geometry (in Bohr), charge = 0, multiplicity = 1:

       Center              X                  Y                   Z               Mass       
    ------------   -----------------  -----------------  -----------------  -----------------
         N            6.279812100000    -4.253033720000     0.193138650000    14.003074004430
         N            6.068707770000    -2.281256970000     1.805443170000    14.003074004430
         H            3.668711560000    -5.646289410000    -1.966840010000     1.007825032230
         H            0.690345210000    -2.375456940000    -0.428642360000     1.007825032230
         H            3.359174420000     0.176506010000     3.092650170000     1.007825032230
         H            7.352667820000    -1.994613110000     2.906807020000     1.007825032230
         C            3.779525860000    -1.215084530000     1.768581720000    12.000000000000
         C            2.382429980000    -2.555055380000     0.046076810000    12.000000000000
         C            4.017714680000    -4.384104900000    -0.887618630000    12.000000000000
      Gh(N)          -9.197044870000    -7.533381330000    19.391811220000    14.003074004430
      Gh(N)          -9.408149200000    -9.505158080000    21.004115740000    14.003074004430
      Gh(H)         -11.808145410000    -6.140125640000    17.231832560000     1.007825032230
      Gh(H)         -14.786511760000    -9.410958110000    18.770030210000     1.007825032230
      Gh(H)         -12.117682550000   -11.962921060000    22.291322740000     1.007825032230
      Gh(H)          -8.124189140000    -9.791801940000    22.105479590000     1.007825032230
      Gh(C)         -11.697331110000   -10.571330520000    20.967254290000    12.000000000000
      Gh(C)         -13.094426990000    -9.231359670000    19.244749390000    12.000000000000
      Gh(C)         -11.459142280000    -7.402310150000    18.311053940000    12.000000000000

  Running in c1 symmetry.

  Rotational constants: A =      0.02330  B =      0.00148  C =      0.00141 [cm^-1]
  Rotational constants: A =    698.53909  B =     44.42637  C =     42.27349 [MHz]
  Nuclear repulsion =  166.624056450327203

  Charge       = 0
  Multiplicity = 1
  Electrons    = 36
  Nalpha       = 18
  Nbeta        = 18

  ==> Algorithm <==

  SCF Algorithm Type is DF.
  DIIS enabled.
  MOM disabled.
  Fractional occupation disabled.
  Guess Type is SAD.
  Energy threshold   = 1.00e-10
  Density threshold  = 1.00e-10
  Integral threshold = 1.00e-12

  ==> Primary Basis <==

  Basis Set: AUG-CC-PVDZ
    Blend: AUG-CC-PVDZ
    Number of shells: 130
    Number of basis functions: 302
    Number of Cartesian functions: 322
    Spherical Harmonics?: true
    Max angular momentum: 2

   => Loading Basis Set <=

    Name: (AUG-CC-PVDZ AUX)
    Role: JKFIT
    Keyword: DF_BASIS_SCF
    atoms 1-2, 10-11 entry N          line   212 file /theoryfs2/ds/csargent/miniconda3/envs/cle/share/psi4/basis/aug-cc-pvdz-jkfit.gbs 
    atoms 3-6, 12-15 entry H          line    70 file /theoryfs2/ds/csargent/miniconda3/envs/cle/share/psi4/basis/aug-cc-pvdz-jkfit.gbs 
    atoms 7-9, 16-18 entry C          line   154 file /theoryfs2/ds/csargent/miniconda3/envs/cle/share/psi4/basis/aug-cc-pvdz-jkfit.gbs 

  ==> Integral Setup <==

  ==> DiskDFJK: Density-Fitted J/K Matrices <==

    J tasked:                  Yes
    K tasked:                  Yes
    wK tasked:                  No
    OpenMP threads:              6
    Integrals threads:           6
    Memory [MiB]:             5006
    Algorithm:                Core
    Integral Cache:           LOAD
    Schwarz Cutoff:          1E-12
    Fitting Condition:       1E-10

   => Auxiliary Basis Set <=

  Basis Set: (AUG-CC-PVDZ AUX)
    Blend: AUG-CC-PVDZ-JKFIT
    Number of shells: 376
    Number of basis functions: 1116
    Number of Cartesian functions: 1290
    Spherical Harmonics?: true
    Max angular momentum: 3

  Minimum eigenvalue in the overlap matrix is 3.0326375168E-05.
  Reciprocal condition number of the overlap matrix is 2.4868648638E-06.
    Using symmetric orthogonalization.

  ==> Pre-Iterations <==

  SCF Guess: Superposition of Atomic Densities via on-the-fly atomic UHF (no occupation information).

   -------------------------
    Irrep   Nso     Nmo    
   -------------------------
     A        302     302 
   -------------------------
    Total     302     302
   -------------------------

  ==> Iterations <==

                           Total Energy        Delta E     RMS |[F,P]|

   @DF-RHF iter SAD:  -224.72194801709406   -2.24722e+02   0.00000e+00 
   @DF-RHF iter   1:  -224.63549174582951    8.64563e-02   1.50472e-03 DIIS
   @DF-RHF iter   2:  -224.73984619183301   -1.04354e-01   6.88462e-04 DIIS
   @DF-RHF iter   3:  -224.76075493775872   -2.09087e-02   1.48626e-04 DIIS
   @DF-RHF iter   4:  -224.76213938148317   -1.38444e-03   6.05310e-05 DIIS
   @DF-RHF iter   5:  -224.76231773624843   -1.78355e-04   1.19893e-05 DIIS
   @DF-RHF iter   6:  -224.76233469372133   -1.69575e-05   4.96772e-06 DIIS
   @DF-RHF iter   7:  -224.76233864975944   -3.95604e-06   2.18806e-06 DIIS
   @DF-RHF iter   8:  -224.76233941050182   -7.60742e-07   1.01700e-06 DIIS
   @DF-RHF iter   9:  -224.76233957814392   -1.67642e-07   2.83302e-07 DIIS
   @DF-RHF iter  10:  -224.76233958696491   -8.82099e-09   8.55548e-08 DIIS
   @DF-RHF iter  11:  -224.76233958765425   -6.89340e-10   1.99714e-08 DIIS
   @DF-RHF iter  12:  -224.76233958769998   -4.57305e-11   5.81092e-09 DIIS
   @DF-RHF iter  13:  -224.76233958770473   -4.74643e-12   2.83097e-09 DIIS
   @DF-RHF iter  14:  -224.76233958770558   -8.52651e-13   9.75191e-10 DIIS
   @DF-RHF iter  15:  -224.76233958770626   -6.82121e-13   4.15548e-10 DIIS
   @DF-RHF iter  16:  -224.76233958770609    1.70530e-13   1.25998e-10 DIIS
   @DF-RHF iter  17:  -224.76233958770592    1.70530e-13   4.47777e-11 DIIS
  Energy and wave function converged.


  ==> Post-Iterations <==

    Orbital Energies [Eh]
    ---------------------

    Doubly Occupied:                                                      

       1A    -15.636223     2A    -15.592313     3A    -11.279894  
       4A    -11.237784     5A    -11.209891     6A     -1.386922  
       7A     -1.121901     8A     -1.066898     9A     -0.872768  
      10A     -0.837061    11A     -0.757292    12A     -0.645746  
      13A     -0.620834    14A     -0.609140    15A     -0.583920  
      16A     -0.461404    17A     -0.370721    18A     -0.346048  

    Virtual:                                                              

      19A      0.022105    20A      0.030589    21A      0.039385  
      22A      0.042399    23A      0.043602    24A      0.049271  
      25A      0.063513    26A      0.065414    27A      0.083495  
      28A      0.090136    29A      0.098288    30A      0.101010  
      31A      0.104029    32A      0.117166    33A      0.117831  
      34A      0.125070    35A      0.126284    36A      0.127756  
      37A      0.132785    38A      0.133095    39A      0.133641  
      40A      0.138562    41A      0.141554    42A      0.156288  
      43A      0.158821    44A      0.164571    45A      0.165661  
      46A      0.171080    47A      0.178277    48A      0.178860  
      49A      0.194968    50A      0.196020    51A      0.201094  
      52A      0.204795    53A      0.206166    54A      0.222345  
      55A      0.224604    56A      0.227730    57A      0.235055  
      58A      0.240244    59A      0.243658    60A      0.244990  
      61A      0.263379    62A      0.270506    63A      0.271133  
      64A      0.279092    65A      0.301017    66A      0.321284  
      67A      0.325235    68A      0.339616    69A      0.352358  
      70A      0.355354    71A      0.366010    72A      0.372368  
      73A      0.374911    74A      0.383212    75A      0.396333  
      76A      0.402741    77A      0.415053    78A      0.427022  
      79A      0.431532    80A      0.432183    81A      0.440727  
      82A      0.441897    83A      0.443385    84A      0.453393  
      85A      0.455482    86A      0.456920    87A      0.459824  
      88A      0.461379    89A      0.478688    90A      0.498545  
      91A      0.508691    92A      0.509247    93A      0.518925  
      94A      0.521992    95A      0.532660    96A      0.537466  
      97A      0.541730    98A      0.558817    99A      0.568399  
     100A      0.571336   101A      0.574433   102A      0.586325  
     103A      0.590539   104A      0.594667   105A      0.602416  
     106A      0.612852   107A      0.620677   108A      0.620996  
     109A      0.633025   110A      0.646111   111A      0.655309  
     112A      0.676164   113A      0.690309   114A      0.698042  
     115A      0.700392   116A      0.707275   117A      0.718959  
     118A      0.721676   119A      0.725126   120A      0.735204  
     121A      0.744891   122A      0.747715   123A      0.758615  
     124A      0.773318   125A      0.781483   126A      0.789126  
     127A      0.797668   128A      0.813982   129A      0.820388  
     130A      0.828506   131A      0.838233   132A      0.848377  
     133A      0.851562   134A      0.854656   135A      0.870527  
     136A      0.880571   137A      0.881411   138A      0.888768  
     139A      0.895176   140A      0.906955   141A      0.915681  
     142A      0.924819   143A      0.942586   144A      0.951570  
     145A      0.978223   146A      0.984851   147A      0.996679  
     148A      1.011149   149A      1.023697   150A      1.029785  
     151A      1.046607   152A      1.051227   153A      1.066514  
     154A      1.070741   155A      1.080516   156A      1.100859  
     157A      1.107709   158A      1.128090   159A      1.134213  
     160A      1.150237   161A      1.158354   162A      1.165804  
     163A      1.175168   164A      1.184537   165A      1.220548  
     166A      1.221282   167A      1.236631   168A      1.267539  
     169A      1.269578   170A      1.293262   171A      1.303343  
     172A      1.311404   173A      1.314704   174A      1.340237  
     175A      1.365820   176A      1.381415   177A      1.401053  
     178A      1.434554   179A      1.444292   180A      1.474693  
     181A      1.492831   182A      1.506594   183A      1.512030  
     184A      1.526130   185A      1.560993   186A      1.590890  
     187A      1.608678   188A      1.637481   189A      1.669488  
     190A      1.676281   191A      1.688446   192A      1.703647  
     193A      1.723960   194A      1.749231   195A      1.764390  
     196A      1.805049   197A      1.875633   198A      1.932405  
     199A      1.943558   200A      1.988082   201A      2.021450  
     202A      2.040693   203A      2.057614   204A      2.088840  
     205A      2.108755   206A      2.134440   207A      2.144688  
     208A      2.167791   209A      2.190005   210A      2.200827  
     211A      2.216274   212A      2.230455   213A      2.233513  
     214A      2.261505   215A      2.275825   216A      2.277334  
     217A      2.288907   218A      2.307643   219A      2.335334  
     220A      2.360716   221A      2.380169   222A      2.389166  
     223A      2.393817   224A      2.394217   225A      2.435247  
     226A      2.443551   227A      2.464967   228A      2.477955  
     229A      2.499561   230A      2.513230   231A      2.531807  
     232A      2.548488   233A      2.570232   234A      2.584720  
     235A      2.630945   236A      2.642967   237A      2.667162  
     238A      2.702658   239A      2.718534   240A      2.733037  
     241A      2.826811   242A      2.827580   243A      2.834769  
     244A      2.869454   245A      2.889675   246A      2.901588  
     247A      2.918600   248A      2.944770   249A      2.999159  
     250A      3.027693   251A      3.055327   252A      3.089453  
     253A      3.092367   254A      3.122750   255A      3.139659  
     256A      3.181576   257A      3.188962   258A      3.222008  
     259A      3.253732   260A      3.288754   261A      3.297866  
     262A      3.355364   263A      3.380239   264A      3.395174  
     265A      3.423127   266A      3.447878   267A      3.486778  
     268A      3.497153   269A      3.520728   270A      3.633086  
     271A      3.666553   272A      3.686564   273A      3.735227  
     274A      3.769682   275A      3.850789   276A      3.889339  
     277A      3.964055   278A      4.035079   279A      4.094358  
     280A      4.209455   281A      4.243710   282A      4.448014  
     283A      4.463242   284A      4.657959   285A      4.707652  
     286A      4.749576   287A      4.810396   288A      4.994488  
     289A      5.076425   290A      5.241084   291A      5.530835  
     292A      5.668553   293A      5.826493   294A      6.106288  
     295A      6.317966   296A      6.707979   297A      6.967471  
     298A     18.110824   299A     18.647528   300A     19.373274  
     301A     25.245095   302A     25.704562  

    Final Occupation by Irrep:
              A 
    DOCC [    18 ]

  @DF-RHF Final Energy:  -224.76233958770592

   => Energetics <=

    Nuclear Repulsion Energy =            166.6240564503272026
    One-Electron Energy =                -633.4992739529257051
    Two-Electron Energy =                 242.1128779148925787
    Total Energy =                       -224.7623395877059238

Computation Completed


Properties will be evaluated at   0.000000,   0.000000,   0.000000 [a0]

Properties computed using the SCF density matrix

  Nuclear Dipole Moment: [e a0]
     X:   162.5886      Y:  -104.5054      Z:    23.1563

  Electronic Dipole Moment: [e a0]
     X:  -162.9913      Y:   105.1370      Z:   -22.5767

  Dipole Moment: [e a0]
     X:    -0.4027      Y:     0.6317      Z:     0.5796     Total:     0.9472

  Dipole Moment: [D]
     X:    -1.0235      Y:     1.6055      Z:     1.4733     Total:     2.4075


*** tstop() called on ds1 at Mon Oct  4 13:43:33 2021
Module time:
	user time   =      18.61 seconds =       0.31 minutes
	system time =       0.36 seconds =       0.01 minutes
	total time  =          4 seconds =       0.07 minutes
Total time:
	user time   =      43.87 seconds =       0.73 minutes
	system time =       0.95 seconds =       0.02 minutes
	total time  =          9 seconds =       0.15 minutes

  //>>>>>>>>>>>>>>>>>>>>>>>>>>>>>>>>>>>//
  //            Monomer B HF           //
  //<<<<<<<<<<<<<<<<<<<<<<<<<<<<<<<<<<<//


*** tstart() called on ds1
*** at Mon Oct  4 13:43:33 2021

   => Loading Basis Set <=

    Name: AUG-CC-PVDZ
    Role: ORBITAL
    Keyword: BASIS
    atoms 1-2, 10-11 entry N          line   218 file /theoryfs2/ds/csargent/miniconda3/envs/cle/share/psi4/basis/aug-cc-pvdz.gbs 
    atoms 3-6, 12-15 entry H          line    40 file /theoryfs2/ds/csargent/miniconda3/envs/cle/share/psi4/basis/aug-cc-pvdz.gbs 
    atoms 7-9, 16-18 entry C          line   182 file /theoryfs2/ds/csargent/miniconda3/envs/cle/share/psi4/basis/aug-cc-pvdz.gbs 


         ---------------------------------------------------------
                                   SCF
               by Justin Turney, Rob Parrish, Andy Simmonett
                          and Daniel G. A. Smith
                              RHF Reference
                        6 Threads,   6675 MiB Core
         ---------------------------------------------------------

  ==> Geometry <==

    Molecular point group: c1
    Full point group: C1

    Geometry (in Bohr), charge = 0, multiplicity = 1:

       Center              X                  Y                   Z               Mass       
    ------------   -----------------  -----------------  -----------------  -----------------
      Gh(N)           6.279812100000    -4.253033720000     0.193138650000    14.003074004430
      Gh(N)           6.068707770000    -2.281256970000     1.805443170000    14.003074004430
      Gh(H)           3.668711560000    -5.646289410000    -1.966840010000     1.007825032230
      Gh(H)           0.690345210000    -2.375456940000    -0.428642360000     1.007825032230
      Gh(H)           3.359174420000     0.176506010000     3.092650170000     1.007825032230
      Gh(H)           7.352667820000    -1.994613110000     2.906807020000     1.007825032230
      Gh(C)           3.779525860000    -1.215084530000     1.768581720000    12.000000000000
      Gh(C)           2.382429980000    -2.555055380000     0.046076810000    12.000000000000
      Gh(C)           4.017714680000    -4.384104900000    -0.887618630000    12.000000000000
         N           -9.197044870000    -7.533381330000    19.391811220000    14.003074004430
         N           -9.408149200000    -9.505158080000    21.004115740000    14.003074004430
         H          -11.808145410000    -6.140125640000    17.231832560000     1.007825032230
         H          -14.786511760000    -9.410958110000    18.770030210000     1.007825032230
         H          -12.117682550000   -11.962921060000    22.291322740000     1.007825032230
         H           -8.124189140000    -9.791801940000    22.105479590000     1.007825032230
         C          -11.697331110000   -10.571330520000    20.967254290000    12.000000000000
         C          -13.094426990000    -9.231359670000    19.244749390000    12.000000000000
         C          -11.459142280000    -7.402310150000    18.311053940000    12.000000000000

  Running in c1 symmetry.

  Rotational constants: A =      0.02330  B =      0.00148  C =      0.00141 [cm^-1]
  Rotational constants: A =    698.53909  B =     44.42637  C =     42.27349 [MHz]
  Nuclear repulsion =  166.624056481892183

  Charge       = 0
  Multiplicity = 1
  Electrons    = 36
  Nalpha       = 18
  Nbeta        = 18

  ==> Algorithm <==

  SCF Algorithm Type is DF.
  DIIS enabled.
  MOM disabled.
  Fractional occupation disabled.
  Guess Type is SAD.
  Energy threshold   = 1.00e-10
  Density threshold  = 1.00e-10
  Integral threshold = 1.00e-12

  ==> Primary Basis <==

  Basis Set: AUG-CC-PVDZ
    Blend: AUG-CC-PVDZ
    Number of shells: 130
    Number of basis functions: 302
    Number of Cartesian functions: 322
    Spherical Harmonics?: true
    Max angular momentum: 2

   => Loading Basis Set <=

    Name: (AUG-CC-PVDZ AUX)
    Role: JKFIT
    Keyword: DF_BASIS_SCF
    atoms 1-2, 10-11 entry N          line   212 file /theoryfs2/ds/csargent/miniconda3/envs/cle/share/psi4/basis/aug-cc-pvdz-jkfit.gbs 
    atoms 3-6, 12-15 entry H          line    70 file /theoryfs2/ds/csargent/miniconda3/envs/cle/share/psi4/basis/aug-cc-pvdz-jkfit.gbs 
    atoms 7-9, 16-18 entry C          line   154 file /theoryfs2/ds/csargent/miniconda3/envs/cle/share/psi4/basis/aug-cc-pvdz-jkfit.gbs 

  ==> Integral Setup <==

  ==> DiskDFJK: Density-Fitted J/K Matrices <==

    J tasked:                  Yes
    K tasked:                  Yes
    wK tasked:                  No
    OpenMP threads:              6
    Integrals threads:           6
    Memory [MiB]:             5006
    Algorithm:                Core
    Integral Cache:           LOAD
    Schwarz Cutoff:          1E-12
    Fitting Condition:       1E-10

   => Auxiliary Basis Set <=

  Basis Set: (AUG-CC-PVDZ AUX)
    Blend: AUG-CC-PVDZ-JKFIT
    Number of shells: 376
    Number of basis functions: 1116
    Number of Cartesian functions: 1290
    Spherical Harmonics?: true
    Max angular momentum: 3

  Minimum eigenvalue in the overlap matrix is 3.0326375168E-05.
  Reciprocal condition number of the overlap matrix is 2.4868648638E-06.
    Using symmetric orthogonalization.

  ==> Pre-Iterations <==

  SCF Guess: Superposition of Atomic Densities via on-the-fly atomic UHF (no occupation information).

   -------------------------
    Irrep   Nso     Nmo    
   -------------------------
     A        302     302 
   -------------------------
    Total     302     302
   -------------------------

  ==> Iterations <==

                           Total Energy        Delta E     RMS |[F,P]|

   @DF-RHF iter SAD:  -224.72194801993587   -2.24722e+02   0.00000e+00 
   @DF-RHF iter   1:  -224.63549176060116    8.64563e-02   1.50472e-03 DIIS
   @DF-RHF iter   2:  -224.73984621594030   -1.04354e-01   6.88462e-04 DIIS
   @DF-RHF iter   3:  -224.76075496997993   -2.09088e-02   1.48626e-04 DIIS
   @DF-RHF iter   4:  -224.76213941407127   -1.38444e-03   6.05311e-05 DIIS
   @DF-RHF iter   5:  -224.76231776893351   -1.78355e-04   1.19893e-05 DIIS
   @DF-RHF iter   6:  -224.76233472640729   -1.69575e-05   4.96772e-06 DIIS
   @DF-RHF iter   7:  -224.76233868244424   -3.95604e-06   2.18806e-06 DIIS
   @DF-RHF iter   8:  -224.76233944318705   -7.60743e-07   1.01700e-06 DIIS
   @DF-RHF iter   9:  -224.76233961082912   -1.67642e-07   2.83302e-07 DIIS
   @DF-RHF iter  10:  -224.76233961965005   -8.82093e-09   8.55548e-08 DIIS
   @DF-RHF iter  11:  -224.76233962033953   -6.89482e-10   1.99714e-08 DIIS
   @DF-RHF iter  12:  -224.76233962038577   -4.62421e-11   5.81092e-09 DIIS
   @DF-RHF iter  13:  -224.76233962038981   -4.03588e-12   2.83097e-09 DIIS
   @DF-RHF iter  14:  -224.76233962039069   -8.81073e-13   9.75192e-10 DIIS
   @DF-RHF iter  15:  -224.76233962039109   -3.97904e-13   4.15548e-10 DIIS
   @DF-RHF iter  16:  -224.76233962039097    1.13687e-13   1.25998e-10 DIIS
   @DF-RHF iter  17:  -224.76233962039120   -2.27374e-13   4.47781e-11 DIIS
  Energy and wave function converged.


  ==> Post-Iterations <==

    Orbital Energies [Eh]
    ---------------------

    Doubly Occupied:                                                      

       1A    -15.636223     2A    -15.592313     3A    -11.279894  
       4A    -11.237784     5A    -11.209891     6A     -1.386922  
       7A     -1.121901     8A     -1.066898     9A     -0.872768  
      10A     -0.837061    11A     -0.757292    12A     -0.645746  
      13A     -0.620834    14A     -0.609140    15A     -0.583920  
      16A     -0.461404    17A     -0.370721    18A     -0.346047  

    Virtual:                                                              

      19A      0.024122    20A      0.030763    21A      0.041287  
      22A      0.042370    23A      0.045367    24A      0.049428  
      25A      0.063543    26A      0.067314    27A      0.085538  
      28A      0.092088    29A      0.100298    30A      0.100998  
      31A      0.104103    32A      0.117150    33A      0.119809  
      34A      0.126245    35A      0.127338    36A      0.129785  
      37A      0.133108    38A      0.134836    39A      0.135731  
      40A      0.138423    41A      0.141593    42A      0.156891  
      43A      0.159832    44A      0.164691    45A      0.167425  
      46A      0.171076    47A      0.178635    48A      0.180636  
      49A      0.196022    50A      0.197019    51A      0.202954  
      52A      0.204809    53A      0.206177    54A      0.224349  
      55A      0.226844    56A      0.229670    57A      0.236984  
      58A      0.240254    59A      0.243635    60A      0.244970  
      61A      0.265395    62A      0.271127    63A      0.272501  
      64A      0.279087    65A      0.301012    66A      0.323284  
      67A      0.325151    68A      0.341699    69A      0.352358  
      70A      0.355502    71A      0.368033    72A      0.374364  
      73A      0.374916    74A      0.385250    75A      0.396075  
      76A      0.402753    77A      0.414999    78A      0.428976  
      79A      0.432140    80A      0.433615    81A      0.441995  
      82A      0.443781    83A      0.444478    84A      0.453398  
      85A      0.457494    86A      0.458886    87A      0.459826  
      88A      0.463374    89A      0.478657    90A      0.498560  
      91A      0.508689    92A      0.511332    93A      0.520918  
      94A      0.521920    95A      0.534681    96A      0.539439  
      97A      0.541714    98A      0.560790    99A      0.570322  
     100A      0.573378   101A      0.574436   102A      0.586353  
     103A      0.590544   104A      0.596703   105A      0.602425  
     106A      0.614797   107A      0.620945   108A      0.622728  
     109A      0.635034   110A      0.646111   111A      0.655299  
     112A      0.676162   113A      0.692360   114A      0.698053  
     115A      0.700393   116A      0.709248   117A      0.720974  
     118A      0.721680   119A      0.725116   120A      0.737251  
     121A      0.746898   122A      0.747711   123A      0.758595  
     124A      0.773319   125A      0.781495   126A      0.791117  
     127A      0.799687   128A      0.815944   129A      0.822378  
     130A      0.828528   131A      0.838236   132A      0.848411  
     133A      0.853476   134A      0.856684   135A      0.872554  
     136A      0.881413   137A      0.882615   138A      0.888768  
     139A      0.897233   140A      0.906953   141A      0.917640  
     142A      0.924823   143A      0.942590   144A      0.953574  
     145A      0.978222   146A      0.984865   147A      0.998685  
     148A      1.011149   149A      1.025699   150A      1.031727  
     151A      1.046616   152A      1.053224   153A      1.066509  
     154A      1.072751   155A      1.082497   156A      1.100852  
     157A      1.109715   158A      1.128147   159A      1.134196  
     160A      1.150237   161A      1.160345   162A      1.167778  
     163A      1.175173   164A      1.186515   165A      1.220565  
     166A      1.223288   167A      1.238607   168A      1.269508  
     169A      1.269595   170A      1.295253   171A      1.303353  
     172A      1.311402   173A      1.316710   174A      1.342241  
     175A      1.365810   176A      1.383358   177A      1.401044  
     178A      1.436533   179A      1.446288   180A      1.474691  
     181A      1.494820   182A      1.508577   183A      1.512030  
     184A      1.526146   185A      1.561000   186A      1.590897  
     187A      1.608681   188A      1.637442   189A      1.669503  
     190A      1.678277   191A      1.690455   192A      1.703662  
     193A      1.723968   194A      1.749219   195A      1.764378  
     196A      1.805048   197A      1.875633   198A      1.932393  
     199A      1.943559   200A      1.988068   201A      2.021457  
     202A      2.042699   203A      2.057620   204A      2.088839  
     205A      2.110815   206A      2.136469   207A      2.144689  
     208A      2.169819   209A      2.190007   210A      2.200828  
     211A      2.218297   212A      2.230458   213A      2.235489  
     214A      2.263513   215A      2.275822   216A      2.279354  
     217A      2.290936   218A      2.307646   219A      2.337364  
     220A      2.360716   221A      2.382130   222A      2.389168  
     223A      2.393822   224A      2.396218   225A      2.435247  
     226A      2.445562   227A      2.464968   228A      2.480033  
     229A      2.501558   230A      2.515195   231A      2.531798  
     232A      2.550491   233A      2.570232   234A      2.584716  
     235A      2.632950   236A      2.642964   237A      2.669177  
     238A      2.704675   239A      2.720561   240A      2.733054  
     241A      2.826838   242A      2.829543   243A      2.834752  
     244A      2.871449   245A      2.891689   246A      2.901599  
     247A      2.918608   248A      2.946754   249A      2.999157  
     250A      3.029713   251A      3.055341   252A      3.091460  
     253A      3.092361   254A      3.122734   255A      3.141672  
     256A      3.183575   257A      3.188955   258A      3.222008  
     259A      3.255741   260A      3.290743   261A      3.297870  
     262A      3.357344   263A      3.380236   264A      3.397174  
     265A      3.425115   266A      3.449882   267A      3.488776  
     268A      3.499173   269A      3.520729   270A      3.635071  
     271A      3.668541   272A      3.686564   273A      3.737219  
     274A      3.771666   275A      3.852772   276A      3.889330  
     277A      3.966035   278A      4.037067   279A      4.096367  
     280A      4.209465   281A      4.245699   282A      4.450016  
     283A      4.463238   284A      4.659947   285A      4.709646  
     286A      4.751596   287A      4.812388   288A      4.996478  
     289A      5.078413   290A      5.243094   291A      5.532833  
     292A      5.670543   293A      5.828502   294A      6.108278  
     295A      6.319968   296A      6.709967   297A      6.969447  
     298A     18.112833   299A     18.649525   300A     19.375291  
     301A     25.247079   302A     25.706541  

    Final Occupation by Irrep:
              A 
    DOCC [    18 ]

  @DF-RHF Final Energy:  -224.76233962039120

   => Energetics <=

    Nuclear Repulsion Energy =            166.6240564818921825
    One-Electron Energy =                -633.4992746441648706
    Two-Electron Energy =                 242.1128785418814857
    Total Energy =                       -224.7623396203912023

Computation Completed


Properties will be evaluated at   0.000000,   0.000000,   0.000000 [a0]

Properties computed using the SCF density matrix

  Nuclear Dipole Moment: [e a0]
     X:  -394.5783      Y:  -319.8056      Z:   714.3085

  Electronic Dipole Moment: [e a0]
     X:   394.1756      Y:   319.1739      Z:  -713.7289

  Dipole Moment: [e a0]
     X:    -0.4027      Y:    -0.6317      Z:     0.5796     Total:     0.9472

  Dipole Moment: [D]
     X:    -1.0235      Y:    -1.6055      Z:     1.4733     Total:     2.4075


*** tstop() called on ds1 at Mon Oct  4 13:43:37 2021
Module time:
	user time   =      18.02 seconds =       0.30 minutes
	system time =       0.36 seconds =       0.01 minutes
	total time  =          4 seconds =       0.07 minutes
Total time:
	user time   =      62.09 seconds =       1.03 minutes
	system time =       1.31 seconds =       0.02 minutes
	total time  =         13 seconds =       0.22 minutes
  Constructing Basis Sets for SAPT...

   => Loading Basis Set <=

    Name: (AUG-CC-PVDZ AUX)
    Role: RIFIT
    Keyword: DF_BASIS_SAPT
    atoms 1-2, 10-11 entry N          line   158 file /theoryfs2/ds/csargent/miniconda3/envs/cle/share/psi4/basis/aug-cc-pvdz-ri.gbs 
    atoms 3-6, 12-15 entry H          line    30 file /theoryfs2/ds/csargent/miniconda3/envs/cle/share/psi4/basis/aug-cc-pvdz-ri.gbs 
    atoms 7-9, 16-18 entry C          line   112 file /theoryfs2/ds/csargent/miniconda3/envs/cle/share/psi4/basis/aug-cc-pvdz-ri.gbs 


  //>>>>>>>>>>>>>>>>>>>>>>>>>>>>>>>>>>>//
  //               SAPT0               //
  //<<<<<<<<<<<<<<<<<<<<<<<<<<<<<<<<<<<//


*** tstart() called on ds1
*** at Mon Oct  4 13:43:37 2021

        SAPT0  
    Ed Hohenstein
     6 June 2009

      Orbital Information
  --------------------------
    NSO        =       302
    NMO        =       302
    NRI        =       904
    NOCC A     =        18
    NOCC B     =        18
    FOCC A     =         5
    FOCC B     =         5
    NVIR A     =       284
    NVIR B     =       284

    Elst10,r            =    -0.000051749494 [Eh]
    Exch10              =     0.000000000239 [Eh]
    Exch10 (S^2)        =     0.000000000239 [Eh]

    Iter     Energy [mEh]          dE [mEh]         Residual      Time [s]
       1      -0.00029352       0.000293523       0.167864019             0
       2      -0.00027132      -0.000022205       0.044264189             0
       3      -0.00029171       0.000020391       0.022542879             1
       4      -0.00029965       0.000007942       0.004897456             1
       5      -0.00029874      -0.000000911       0.003206019             1
       6      -0.00029829      -0.000000453       0.001105753             1
       7      -0.00029843       0.000000141       0.000483467             1
       8      -0.00029847       0.000000042       0.000154431             1
       9      -0.00029847      -0.000000003       0.000035947             1
      10      -0.00029846      -0.000000004       0.000010382             1
      11      -0.00029846       0.000000000       0.000003976             2
      12      -0.00029846       0.000000001       0.000001266             2
      13      -0.00029846      -0.000000000       0.000000348             2

    CHF Iterations converged


    Iter     Energy [mEh]          dE [mEh]         Residual      Time [s]
       1      -0.00009381       0.000093815       0.108123991             0
       2      -0.00008607      -0.000007745       0.026314248             0
       3      -0.00009536       0.000009288       0.010546437             0
       4      -0.00009650       0.000001142       0.003440576             0
       5      -0.00009621      -0.000000289       0.002148970             0
       6      -0.00009608      -0.000000134       0.000787412             1
       7      -0.00009611       0.000000029       0.000291733             1
       8      -0.00009613       0.000000019       0.000094290             1
       9      -0.00009613       0.000000001       0.000022550             1
      10      -0.00009612      -0.000000002       0.000006219             1
      11      -0.00009612      -0.000000000       0.000001877             1
      12      -0.00009612       0.000000000       0.000000476             1

    CHF Iterations converged

    Ind20,r (A<-B)      =    -0.000000298463 [Eh]
    Ind20,r (B<-A)      =    -0.000000096124 [Eh]
    Ind20,r             =    -0.000000394587 [Eh]
    Exch-Ind20,r (A<-B) =     0.000000000160 [Eh]
    Exch-Ind20,r (B<-A) =     0.000000000200 [Eh]
    Exch-Ind20,r        =     0.000000000359 [Eh]
    Disp20              =    -0.000004250155 [Eh]
    Disp20 (SS)         =    -0.000002125078 [Eh]
    Disp20 (OS)         =    -0.000002125078 [Eh]
    Exch-Disp20         =     0.000000000015 [Eh]
    Exch-Disp20 (SS)    =     0.000000000011 [Eh]
    Exch-Disp20 (OS)    =     0.000000000003 [Eh]

    SAPT Results 
  --------------------------------------------------------------------------------------------------------
    Electrostatics                 -0.05174949 [mEh]      -0.03247330 [kcal/mol]      -0.13586828 [kJ/mol]
      Elst10,r                     -0.05174949 [mEh]      -0.03247330 [kcal/mol]      -0.13586828 [kJ/mol]

    Exchange                        0.00000024 [mEh]       0.00000015 [kcal/mol]       0.00000063 [kJ/mol]
      Exch10                        0.00000024 [mEh]       0.00000015 [kcal/mol]       0.00000063 [kJ/mol]
      Exch10(S^2)                   0.00000024 [mEh]       0.00000015 [kcal/mol]       0.00000063 [kJ/mol]

    Induction                      -0.00025361 [mEh]      -0.00015914 [kcal/mol]      -0.00066585 [kJ/mol]
      Ind20,r                      -0.00039459 [mEh]      -0.00024761 [kcal/mol]      -0.00103599 [kJ/mol]
      Exch-Ind20,r                  0.00000036 [mEh]       0.00000023 [kcal/mol]       0.00000094 [kJ/mol]
      delta HF,r (2)                0.00014062 [mEh]       0.00008824 [kcal/mol]       0.00036920 [kJ/mol]

    Dispersion                     -0.00425014 [mEh]      -0.00266700 [kcal/mol]      -0.01115874 [kJ/mol]
      Disp20                       -0.00425016 [mEh]      -0.00266701 [kcal/mol]      -0.01115878 [kJ/mol]
      Exch-Disp20                   0.00000001 [mEh]       0.00000001 [kcal/mol]       0.00000004 [kJ/mol]
      Disp20 (SS)                  -0.00212508 [mEh]      -0.00133351 [kcal/mol]      -0.00557939 [kJ/mol]
      Disp20 (OS)                  -0.00212508 [mEh]      -0.00133351 [kcal/mol]      -0.00557939 [kJ/mol]
      Exch-Disp20 (SS)              0.00000001 [mEh]       0.00000001 [kcal/mol]       0.00000003 [kJ/mol]
      Exch-Disp20 (OS)              0.00000000 [mEh]       0.00000000 [kcal/mol]       0.00000001 [kJ/mol]

  Total HF                         -0.05200286 [mEh]      -0.03263229 [kcal/mol]      -0.13653350 [kJ/mol]
  Total SAPT0                      -0.05625300 [mEh]      -0.03529929 [kcal/mol]      -0.14769224 [kJ/mol]

  Special recipe for scaled SAPT0 (see Manual):
    Electrostatics sSAPT0          -0.05174949 [mEh]      -0.03247330 [kcal/mol]      -0.13586828 [kJ/mol]
    Exchange sSAPT0                 0.00000024 [mEh]       0.00000015 [kcal/mol]       0.00000063 [kJ/mol]
    Induction sSAPT0               -0.00025361 [mEh]      -0.00015914 [kcal/mol]      -0.00066585 [kJ/mol]
    Dispersion sSAPT0              -0.00425014 [mEh]      -0.00266700 [kcal/mol]      -0.01115874 [kJ/mol]
  Total sSAPT0                     -0.05625300 [mEh]      -0.03529929 [kcal/mol]      -0.14769224 [kJ/mol]
  --------------------------------------------------------------------------------------------------------

*** tstop() called on ds1 at Mon Oct  4 13:43:47 2021
Module time:
	user time   =      46.66 seconds =       0.78 minutes
	system time =       4.19 seconds =       0.07 minutes
	total time  =         10 seconds =       0.17 minutes
Total time:
	user time   =     109.59 seconds =       1.83 minutes
	system time =       5.53 seconds =       0.09 minutes
	total time  =         23 seconds =       0.38 minutes


Warning! sapt0 does not have an associated derived wavefunction.The returned wavefunction is the dimer SCF wavefunction.


    Psi4 stopped on: Monday, 04 October 2021 01:43PM
    Psi4 wall time for execution: 0:00:23.22

*** Psi4 exiting successfully. Buy a developer a beer!
