
    -----------------------------------------------------------------------
          Psi4: An Open-Source Ab Initio Electronic Structure Package
                               Psi4 1.4rc3 

                         Git: Rev {HEAD} 080dba6 


    D. G. A. Smith, L. A. Burns, A. C. Simmonett, R. M. Parrish,
    M. C. Schieber, R. Galvelis, P. Kraus, H. Kruse, R. Di Remigio,
    A. Alenaizan, A. M. James, S. Lehtola, J. P. Misiewicz, M. Scheurer,
    R. A. Shaw, J. B. Schriber, Y. Xie, Z. L. Glick, D. A. Sirianni,
    J. S. O'Brien, J. M. Waldrop, A. Kumar, E. G. Hohenstein,
    B. P. Pritchard, B. R. Brooks, H. F. Schaefer III, A. Yu. Sokolov,
    K. Patkowski, A. E. DePrince III, U. Bozkaya, R. A. King,
    F. A. Evangelista, J. M. Turney, T. D. Crawford, C. D. Sherrill,
    J. Chem. Phys. 152(18) 184108 (2020). https://doi.org/10.1063/5.0006002

                            Additional Code Authors
    E. T. Seidl, C. L. Janssen, E. F. Valeev, M. L. Leininger,
    J. F. Gonthier, R. M. Richard, H. R. McAlexander, M. Saitow, X. Wang,
    P. Verma, and M. H. Lechner

             Previous Authors, Complete List of Code Contributors,
                       and Citations for Specific Modules
    https://github.com/psi4/psi4/blob/master/codemeta.json
    https://github.com/psi4/psi4/graphs/contributors
    http://psicode.org/psi4manual/master/introduction.html#citing-psifour

    -----------------------------------------------------------------------


    Psi4 started on: Monday, 04 October 2021 03:21PM

    Process ID: 12673
    Host:       ds1
    PSIDATADIR: /theoryfs2/ds/csargent/miniconda3/envs/cle/share/psi4
    Memory:     500.0 MiB
    Threads:    6
    
  ==> Input File <==

--------------------------------------------------------------------------
# PSI4 file produced by CrystaLattE

# Generated from:               pyrazole.xyz
# Psithon input for N-mer:      2mer-0+149
# Number of atoms per monomer:  [9, 9]
# Number of replicas:           2
# COM priority:                 3.314140653730e-05
# Minimum COM separations:      16.474 
# Separation priority:          5.110898622799e-05
# Minimum monomer separations:  14.259 
# Cutoff priority:              1.896690004380e-06
# Nuclear repulsion energy:     374.84610428279655

memory 7 GB

molecule Dimer_0_149 {
  N            6.27981210      -4.25303372       0.19313865 
  N            6.06870777      -2.28125697       1.80544317 
  H            3.66871156      -5.64628941      -1.96684001 
  H            0.69034521      -2.37545694      -0.42864236 
  H            3.35917442       0.17650601       3.09265017 
  H            7.35266782      -1.99461311       2.90680702 
  C            3.77952586      -1.21508453       1.76858172 
  C            2.38242998      -2.55505538       0.04607681 
  C            4.01771468      -4.38410490      -0.88761863 
--
  N           -9.19704487      19.53483875     -12.60597640 
  N           -9.40814920      21.50661550     -10.99367188 
  H          -11.80814541      18.14158306     -14.76595506 
  H          -14.78651176      21.41241552     -13.22775741 
  H          -12.11768255      23.96437848      -9.70646488 
  H           -8.12418914      21.79325936      -9.89230803 
  C          -11.69733111      22.57278794     -11.03053333 
  C          -13.09442699      21.23281709     -12.75303823 
  C          -11.45914228      19.40376757     -13.68673368 
units = au
no_com
no_reorient
}

set {
  e_convergence 10
  d_convergence 10
  scf_type df
  mp2_type df
  cc_type df
  freeze_core true
}

energy('sapt0/aug-cc-pvdz')

--------------------------------------------------------------------------

  Memory set to   6.519 GiB by Python driver.

Scratch directory: /scratch/csargent/psi4.7158.66302/

Scratch directory: /scratch/csargent/psi4.7158.66302/

  //>>>>>>>>>>>>>>>>>>>>>>>>>>>>>>>>>>>//
  //              Dimer HF             //
  //<<<<<<<<<<<<<<<<<<<<<<<<<<<<<<<<<<<//


*** tstart() called on ds1
*** at Mon Oct  4 15:21:06 2021

   => Loading Basis Set <=

    Name: AUG-CC-PVDZ
    Role: ORBITAL
    Keyword: BASIS
    atoms 1-2, 10-11 entry N          line   218 file /theoryfs2/ds/csargent/miniconda3/envs/cle/share/psi4/basis/aug-cc-pvdz.gbs 
    atoms 3-6, 12-15 entry H          line    40 file /theoryfs2/ds/csargent/miniconda3/envs/cle/share/psi4/basis/aug-cc-pvdz.gbs 
    atoms 7-9, 16-18 entry C          line   182 file /theoryfs2/ds/csargent/miniconda3/envs/cle/share/psi4/basis/aug-cc-pvdz.gbs 


         ---------------------------------------------------------
                                   SCF
               by Justin Turney, Rob Parrish, Andy Simmonett
                          and Daniel G. A. Smith
                              RHF Reference
                        6 Threads,   6675 MiB Core
         ---------------------------------------------------------

  ==> Geometry <==

    Molecular point group: c1
    Full point group: C1

    Geometry (in Bohr), charge = 0, multiplicity = 1:

       Center              X                  Y                   Z               Mass       
    ------------   -----------------  -----------------  -----------------  -----------------
         N            6.279812100000    -4.253033720000     0.193138650000    14.003074004430
         N            6.068707770000    -2.281256970000     1.805443170000    14.003074004430
         H            3.668711560000    -5.646289410000    -1.966840010000     1.007825032230
         H            0.690345210000    -2.375456940000    -0.428642360000     1.007825032230
         H            3.359174420000     0.176506010000     3.092650170000     1.007825032230
         H            7.352667820000    -1.994613110000     2.906807020000     1.007825032230
         C            3.779525860000    -1.215084530000     1.768581720000    12.000000000000
         C            2.382429980000    -2.555055380000     0.046076810000    12.000000000000
         C            4.017714680000    -4.384104900000    -0.887618630000    12.000000000000
         N           -9.197044870000    19.534838750000   -12.605976400000    14.003074004430
         N           -9.408149200000    21.506615500000   -10.993671880000    14.003074004430
         H          -11.808145410000    18.141583060000   -14.765955060000     1.007825032230
         H          -14.786511760000    21.412415520000   -13.227757410000     1.007825032230
         H          -12.117682550000    23.964378480000    -9.706464880000     1.007825032230
         H           -8.124189140000    21.793259360000    -9.892308030000     1.007825032230
         C          -11.697331110000    22.572787940000   -11.030533330000    12.000000000000
         C          -13.094426990000    21.232817090000   -12.753038230000    12.000000000000
         C          -11.459142280000    19.403767570000   -13.686733680000    12.000000000000

  Running in c1 symmetry.

  Rotational constants: A =      0.05090  B =      0.00121  C =      0.00120 [cm^-1]
  Rotational constants: A =   1526.03989  B =     36.29488  C =     35.96031 [MHz]
  Nuclear repulsion =  374.846104324935311

  Charge       = 0
  Multiplicity = 1
  Electrons    = 72
  Nalpha       = 36
  Nbeta        = 36

  ==> Algorithm <==

  SCF Algorithm Type is DF.
  DIIS enabled.
  MOM disabled.
  Fractional occupation disabled.
  Guess Type is SAD.
  Energy threshold   = 1.00e-10
  Density threshold  = 1.00e-10
  Integral threshold = 1.00e-12

  ==> Primary Basis <==

  Basis Set: AUG-CC-PVDZ
    Blend: AUG-CC-PVDZ
    Number of shells: 130
    Number of basis functions: 302
    Number of Cartesian functions: 322
    Spherical Harmonics?: true
    Max angular momentum: 2

   => Loading Basis Set <=

    Name: (AUG-CC-PVDZ AUX)
    Role: JKFIT
    Keyword: DF_BASIS_SCF
    atoms 1-2, 10-11 entry N          line   212 file /theoryfs2/ds/csargent/miniconda3/envs/cle/share/psi4/basis/aug-cc-pvdz-jkfit.gbs 
    atoms 3-6, 12-15 entry H          line    70 file /theoryfs2/ds/csargent/miniconda3/envs/cle/share/psi4/basis/aug-cc-pvdz-jkfit.gbs 
    atoms 7-9, 16-18 entry C          line   154 file /theoryfs2/ds/csargent/miniconda3/envs/cle/share/psi4/basis/aug-cc-pvdz-jkfit.gbs 

  ==> Integral Setup <==

  ==> DiskDFJK: Density-Fitted J/K Matrices <==

    J tasked:                  Yes
    K tasked:                  Yes
    wK tasked:                  No
    OpenMP threads:              6
    Integrals threads:           6
    Memory [MiB]:             5006
    Algorithm:                Core
    Integral Cache:           SAVE
    Schwarz Cutoff:          1E-12
    Fitting Condition:       1E-10

   => Auxiliary Basis Set <=

  Basis Set: (AUG-CC-PVDZ AUX)
    Blend: AUG-CC-PVDZ-JKFIT
    Number of shells: 376
    Number of basis functions: 1116
    Number of Cartesian functions: 1290
    Spherical Harmonics?: true
    Max angular momentum: 3

  Minimum eigenvalue in the overlap matrix is 3.0333721376E-05.
  Reciprocal condition number of the overlap matrix is 2.4874811988E-06.
    Using symmetric orthogonalization.

  ==> Pre-Iterations <==

  SCF Guess: Superposition of Atomic Densities via on-the-fly atomic UHF (no occupation information).

   -------------------------
    Irrep   Nso     Nmo    
   -------------------------
     A        302     302 
   -------------------------
    Total     302     302
   -------------------------

  ==> Iterations <==

                           Total Energy        Delta E     RMS |[F,P]|

   @DF-RHF iter SAD:  -449.44389603217252   -4.49444e+02   0.00000e+00 
   @DF-RHF iter   1:  -449.27090329425789    1.72993e-01   2.12828e-03 DIIS
   @DF-RHF iter   2:  -449.47962141732506   -2.08718e-01   9.74221e-04 DIIS
   @DF-RHF iter   3:  -449.52148982873837   -4.18684e-02   2.10434e-04 DIIS
   @DF-RHF iter   4:  -449.52426231566113   -2.77249e-03   8.57899e-05 DIIS
   @DF-RHF iter   5:  -449.52462050742116   -3.58192e-04   1.69455e-05 DIIS
   @DF-RHF iter   6:  -449.52465443229164   -3.39249e-05   7.02456e-06 DIIS
   @DF-RHF iter   7:  -449.52466234822714   -7.91594e-06   3.08621e-06 DIIS
   @DF-RHF iter   8:  -449.52466386683238   -1.51861e-06   1.43767e-06 DIIS
   @DF-RHF iter   9:  -449.52466420104145   -3.34209e-07   4.00344e-07 DIIS
   @DF-RHF iter  10:  -449.52466421862806   -1.75866e-08   1.21138e-07 DIIS
   @DF-RHF iter  11:  -449.52466422000685   -1.37879e-09   2.82196e-08 DIIS
   @DF-RHF iter  12:  -449.52466422009866   -9.18021e-11   8.20312e-09 DIIS
   @DF-RHF iter  13:  -449.52466422010673   -8.07177e-12   3.99127e-09 DIIS
   @DF-RHF iter  14:  -449.52466422010878   -2.04636e-12   1.37124e-09 DIIS
   @DF-RHF iter  15:  -449.52466422010906   -2.84217e-13   5.85109e-10 DIIS
   @DF-RHF iter  16:  -449.52466422010963   -5.68434e-13   1.78025e-10 DIIS
   @DF-RHF iter  17:  -449.52466422010940    2.27374e-13   6.33079e-11 DIIS
  Energy and wave function converged.


  ==> Post-Iterations <==

    Orbital Energies [Eh]
    ---------------------

    Doubly Occupied:                                                      

       1A    -15.636573     2A    -15.635660     3A    -15.592650  
       4A    -15.591741     5A    -11.280241     6A    -11.279321  
       7A    -11.238116     8A    -11.237202     9A    -11.210229  
      10A    -11.209295    11A     -1.387268    12A     -1.386356  
      13A     -1.122245    14A     -1.121335    15A     -1.067240  
      16A     -1.066316    17A     -0.873110    18A     -0.872193  
      19A     -0.837397    20A     -0.836477    21A     -0.757638  
      22A     -0.756722    23A     -0.646086    24A     -0.645167  
      25A     -0.621170    26A     -0.620245    27A     -0.609487  
      28A     -0.608572    29A     -0.584261    30A     -0.583343  
      31A     -0.461740    32A     -0.460838    33A     -0.371060  
      34A     -0.370142    35A     -0.346390    36A     -0.345467  

    Virtual:                                                              

      37A      0.030347    38A      0.031209    39A      0.042079  
      40A      0.043075    41A      0.048808    42A      0.049678  
      43A      0.063199    44A      0.064084    45A      0.100617  
      46A      0.101519    47A      0.103710    48A      0.104598  
      49A      0.116868    50A      0.117815    51A      0.125928  
      52A      0.126865    53A      0.132711    54A      0.133598  
      55A      0.138103    56A      0.139114    57A      0.141178  
      58A      0.142088    59A      0.156572    60A      0.157547  
      61A      0.164294    62A      0.165232    63A      0.170724  
      64A      0.171636    65A      0.178083    66A      0.178992  
      67A      0.195662    68A      0.196527    69A      0.204425  
      70A      0.205326    71A      0.205803    72A      0.206698  
      73A      0.239914    74A      0.240834    75A      0.243287  
      76A      0.244195    77A      0.244647    78A      0.245540  
      79A      0.270791    80A      0.271693    81A      0.278722  
      82A      0.279608    83A      0.300726    84A      0.301581  
      85A      0.324798    86A      0.325716    87A      0.352006  
      88A      0.352914    89A      0.355038    90A      0.355960  
      91A      0.374552    92A      0.375477    93A      0.395719  
      94A      0.396604    95A      0.402396    96A      0.403305  
      97A      0.414678    98A      0.415658    99A      0.431772  
     100A      0.432693   101A      0.443065   102A      0.443948  
     103A      0.453056   104A      0.453960   105A      0.459481  
     106A      0.460380   107A      0.478287   108A      0.479215  
     109A      0.498212   110A      0.499115   111A      0.508355  
     112A      0.509267   113A      0.521571   114A      0.522486  
     115A      0.541224   116A      0.542154   117A      0.574077  
     118A      0.574989   119A      0.585972   120A      0.586892  
     121A      0.590196   122A      0.591121   123A      0.602067  
     124A      0.602996   125A      0.620618   126A      0.621548  
     127A      0.645777   128A      0.646697   129A      0.654967  
     130A      0.655896   131A      0.675820   132A      0.676750  
     133A      0.697709   134A      0.698626   135A      0.700049  
     136A      0.700969   137A      0.721329   138A      0.722232  
     139A      0.724769   140A      0.725693   141A      0.747370  
     142A      0.748279   143A      0.758263   144A      0.759180  
     145A      0.772980   146A      0.773911   147A      0.781129  
     148A      0.782047   149A      0.828173   150A      0.829075  
     151A      0.837881   152A      0.838797   153A      0.848064  
     154A      0.848970   155A      0.881068   156A      0.882002  
     157A      0.888424   158A      0.889346   159A      0.906614  
     160A      0.907535   161A      0.924469   162A      0.925381  
     163A      0.942245   164A      0.943165   165A      0.977884  
     166A      0.978814   167A      0.984511   168A      0.985436  
     169A      1.010818   170A      1.011715   171A      1.046262  
     172A      1.047155   173A      1.066169   174A      1.067089  
     175A      1.100500   176A      1.101406   177A      1.127724  
     178A      1.128645   179A      1.133854   180A      1.134762  
     181A      1.149893   182A      1.150821   183A      1.174833  
     184A      1.175755   185A      1.220212   186A      1.221113  
     187A      1.269220   188A      1.270140   189A      1.303003  
     190A      1.303910   191A      1.311052   192A      1.311961  
     193A      1.365465   194A      1.366382   195A      1.400712  
     196A      1.401636   197A      1.474346   198A      1.475253  
     199A      1.511676   200A      1.512594   201A      1.525794  
     202A      1.526711   203A      1.560655   204A      1.561576  
     205A      1.590541   206A      1.591466   207A      1.608333  
     208A      1.609259   209A      1.637100   210A      1.638036  
     211A      1.669134   212A      1.670069   213A      1.703289  
     214A      1.704201   215A      1.723607   216A      1.724525  
     217A      1.748880   218A      1.749797   219A      1.764032  
     220A      1.764954   221A      1.804711   222A      1.805625  
     223A      1.875287   224A      1.876205   225A      1.932051  
     226A      1.932965   227A      1.943222   228A      1.944157  
     229A      1.987736   230A      1.988658   231A      2.021106  
     232A      2.022019   233A      2.057270   234A      2.058192  
     235A      2.088492   236A      2.089410   237A      2.144346  
     238A      2.145261   239A      2.189665   240A      2.190588  
     241A      2.200493   242A      2.201415   243A      2.230109  
     244A      2.231027   245A      2.275495   246A      2.276419  
     247A      2.307293   248A      2.308212   249A      2.360381  
     250A      2.361298   251A      2.388789   252A      2.389698  
     253A      2.393461   254A      2.394363   255A      2.434899  
     256A      2.435807   257A      2.464608   258A      2.465516  
     259A      2.531456   260A      2.532376   261A      2.569890  
     262A      2.570807   263A      2.584362   264A      2.585268  
     265A      2.642616   266A      2.643528   267A      2.732679  
     268A      2.733593   269A      2.826500   270A      2.827414  
     271A      2.834412   272A      2.835327   273A      2.901240  
     274A      2.902149   275A      2.918248   276A      2.919157  
     277A      2.998815   278A      2.999736   279A      3.054978  
     280A      3.055889   281A      3.092017   282A      3.092925  
     283A      3.122388   284A      3.123304   285A      3.188596  
     286A      3.189515   287A      3.221669   288A      3.222591  
     289A      3.297527   290A      3.298437   291A      3.379893  
     292A      3.380819   293A      3.520384   294A      3.521295  
     295A      3.686226   296A      3.687147   297A      3.888980  
     298A      3.889886   299A      4.209087   300A      4.209995  
     301A      4.462899   302A      4.463825  

    Final Occupation by Irrep:
              A 
    DOCC [    36 ]

  @DF-RHF Final Energy:  -449.52466422010940

   => Energetics <=

    Nuclear Repulsion Energy =            374.8461043249353111
    One-Electron Energy =               -1350.2029494976318347
    Two-Electron Energy =                 525.8321809525870094
    Total Energy =                       -449.5246642201094573

Computation Completed


Properties will be evaluated at   0.000000,   0.000000,   0.000000 [a0]

Properties computed using the SCF density matrix

  Nuclear Dipole Moment: [e a0]
     X:  -231.9897      Y:   647.3527      Z:  -414.4556

  Electronic Dipole Moment: [e a0]
     X:   231.1833      Y:  -646.0888      Z:   415.6118

  Dipole Moment: [e a0]
     X:    -0.8065      Y:     1.2639      Z:     1.1562     Total:     1.8933

  Dipole Moment: [D]
     X:    -2.0498      Y:     3.2125      Z:     2.9388     Total:     4.8124


*** tstop() called on ds1 at Mon Oct  4 15:21:11 2021
Module time:
	user time   =      23.05 seconds =       0.38 minutes
	system time =       0.58 seconds =       0.01 minutes
	total time  =          5 seconds =       0.08 minutes
Total time:
	user time   =      23.05 seconds =       0.38 minutes
	system time =       0.58 seconds =       0.01 minutes
	total time  =          5 seconds =       0.08 minutes

  //>>>>>>>>>>>>>>>>>>>>>>>>>>>>>>>>>>>//
  //            Monomer A HF           //
  //<<<<<<<<<<<<<<<<<<<<<<<<<<<<<<<<<<<//


*** tstart() called on ds1
*** at Mon Oct  4 15:21:11 2021

   => Loading Basis Set <=

    Name: AUG-CC-PVDZ
    Role: ORBITAL
    Keyword: BASIS
    atoms 1-2, 10-11 entry N          line   218 file /theoryfs2/ds/csargent/miniconda3/envs/cle/share/psi4/basis/aug-cc-pvdz.gbs 
    atoms 3-6, 12-15 entry H          line    40 file /theoryfs2/ds/csargent/miniconda3/envs/cle/share/psi4/basis/aug-cc-pvdz.gbs 
    atoms 7-9, 16-18 entry C          line   182 file /theoryfs2/ds/csargent/miniconda3/envs/cle/share/psi4/basis/aug-cc-pvdz.gbs 


         ---------------------------------------------------------
                                   SCF
               by Justin Turney, Rob Parrish, Andy Simmonett
                          and Daniel G. A. Smith
                              RHF Reference
                        6 Threads,   6675 MiB Core
         ---------------------------------------------------------

  ==> Geometry <==

    Molecular point group: c1
    Full point group: C1

    Geometry (in Bohr), charge = 0, multiplicity = 1:

       Center              X                  Y                   Z               Mass       
    ------------   -----------------  -----------------  -----------------  -----------------
         N            6.279812100000    -4.253033720000     0.193138650000    14.003074004430
         N            6.068707770000    -2.281256970000     1.805443170000    14.003074004430
         H            3.668711560000    -5.646289410000    -1.966840010000     1.007825032230
         H            0.690345210000    -2.375456940000    -0.428642360000     1.007825032230
         H            3.359174420000     0.176506010000     3.092650170000     1.007825032230
         H            7.352667820000    -1.994613110000     2.906807020000     1.007825032230
         C            3.779525860000    -1.215084530000     1.768581720000    12.000000000000
         C            2.382429980000    -2.555055380000     0.046076810000    12.000000000000
         C            4.017714680000    -4.384104900000    -0.887618630000    12.000000000000
      Gh(N)          -9.197044870000    19.534838750000   -12.605976400000    14.003074004430
      Gh(N)          -9.408149200000    21.506615500000   -10.993671880000    14.003074004430
      Gh(H)         -11.808145410000    18.141583060000   -14.765955060000     1.007825032230
      Gh(H)         -14.786511760000    21.412415520000   -13.227757410000     1.007825032230
      Gh(H)         -12.117682550000    23.964378480000    -9.706464880000     1.007825032230
      Gh(H)          -8.124189140000    21.793259360000    -9.892308030000     1.007825032230
      Gh(C)         -11.697331110000    22.572787940000   -11.030533330000    12.000000000000
      Gh(C)         -13.094426990000    21.232817090000   -12.753038230000    12.000000000000
      Gh(C)         -11.459142280000    19.403767570000   -13.686733680000    12.000000000000

  Running in c1 symmetry.

  Rotational constants: A =      0.05090  B =      0.00121  C =      0.00120 [cm^-1]
  Rotational constants: A =   1526.03989  B =     36.29488  C =     35.96031 [MHz]
  Nuclear repulsion =  166.624056450327203

  Charge       = 0
  Multiplicity = 1
  Electrons    = 36
  Nalpha       = 18
  Nbeta        = 18

  ==> Algorithm <==

  SCF Algorithm Type is DF.
  DIIS enabled.
  MOM disabled.
  Fractional occupation disabled.
  Guess Type is SAD.
  Energy threshold   = 1.00e-10
  Density threshold  = 1.00e-10
  Integral threshold = 1.00e-12

  ==> Primary Basis <==

  Basis Set: AUG-CC-PVDZ
    Blend: AUG-CC-PVDZ
    Number of shells: 130
    Number of basis functions: 302
    Number of Cartesian functions: 322
    Spherical Harmonics?: true
    Max angular momentum: 2

   => Loading Basis Set <=

    Name: (AUG-CC-PVDZ AUX)
    Role: JKFIT
    Keyword: DF_BASIS_SCF
    atoms 1-2, 10-11 entry N          line   212 file /theoryfs2/ds/csargent/miniconda3/envs/cle/share/psi4/basis/aug-cc-pvdz-jkfit.gbs 
    atoms 3-6, 12-15 entry H          line    70 file /theoryfs2/ds/csargent/miniconda3/envs/cle/share/psi4/basis/aug-cc-pvdz-jkfit.gbs 
    atoms 7-9, 16-18 entry C          line   154 file /theoryfs2/ds/csargent/miniconda3/envs/cle/share/psi4/basis/aug-cc-pvdz-jkfit.gbs 

  ==> Integral Setup <==

  ==> DiskDFJK: Density-Fitted J/K Matrices <==

    J tasked:                  Yes
    K tasked:                  Yes
    wK tasked:                  No
    OpenMP threads:              6
    Integrals threads:           6
    Memory [MiB]:             5006
    Algorithm:                Core
    Integral Cache:           LOAD
    Schwarz Cutoff:          1E-12
    Fitting Condition:       1E-10

   => Auxiliary Basis Set <=

  Basis Set: (AUG-CC-PVDZ AUX)
    Blend: AUG-CC-PVDZ-JKFIT
    Number of shells: 376
    Number of basis functions: 1116
    Number of Cartesian functions: 1290
    Spherical Harmonics?: true
    Max angular momentum: 3

  Minimum eigenvalue in the overlap matrix is 3.0333721376E-05.
  Reciprocal condition number of the overlap matrix is 2.4874811988E-06.
    Using symmetric orthogonalization.

  ==> Pre-Iterations <==

  SCF Guess: Superposition of Atomic Densities via on-the-fly atomic UHF (no occupation information).

   -------------------------
    Irrep   Nso     Nmo    
   -------------------------
     A        302     302 
   -------------------------
    Total     302     302
   -------------------------

  ==> Iterations <==

                           Total Energy        Delta E     RMS |[F,P]|

   @DF-RHF iter SAD:  -224.72194801372353   -2.24722e+02   0.00000e+00 
   @DF-RHF iter   1:  -224.63549170108752    8.64563e-02   1.50472e-03 DIIS
   @DF-RHF iter   2:  -224.73984613381177   -1.04354e-01   6.88462e-04 DIIS
   @DF-RHF iter   3:  -224.76075487274295   -2.09087e-02   1.48626e-04 DIIS
   @DF-RHF iter   4:  -224.76213931650946   -1.38444e-03   6.05310e-05 DIIS
   @DF-RHF iter   5:  -224.76231767126654   -1.78355e-04   1.19893e-05 DIIS
   @DF-RHF iter   6:  -224.76233462874077   -1.69575e-05   4.96772e-06 DIIS
   @DF-RHF iter   7:  -224.76233858477818   -3.95604e-06   2.18806e-06 DIIS
   @DF-RHF iter   8:  -224.76233934552059   -7.60742e-07   1.01700e-06 DIIS
   @DF-RHF iter   9:  -224.76233951316260   -1.67642e-07   2.83302e-07 DIIS
   @DF-RHF iter  10:  -224.76233952198351   -8.82090e-09   8.55547e-08 DIIS
   @DF-RHF iter  11:  -224.76233952267285   -6.89340e-10   1.99714e-08 DIIS
   @DF-RHF iter  12:  -224.76233952271932   -4.64695e-11   5.81092e-09 DIIS
   @DF-RHF iter  13:  -224.76233952272361   -4.29168e-12   2.83097e-09 DIIS
   @DF-RHF iter  14:  -224.76233952272403   -4.26326e-13   9.75191e-10 DIIS
   @DF-RHF iter  15:  -224.76233952272491   -8.81073e-13   4.15548e-10 DIIS
   @DF-RHF iter  16:  -224.76233952272452    3.97904e-13   1.25997e-10 DIIS
   @DF-RHF iter  17:  -224.76233952272486   -3.41061e-13   4.47774e-11 DIIS
  Energy and wave function converged.


  ==> Post-Iterations <==

    Orbital Energies [Eh]
    ---------------------

    Doubly Occupied:                                                      

       1A    -15.636223     2A    -15.592313     3A    -11.279894  
       4A    -11.237784     5A    -11.209891     6A     -1.386922  
       7A     -1.121901     8A     -1.066898     9A     -0.872768  
      10A     -0.837061    11A     -0.757292    12A     -0.645746  
      13A     -0.620834    14A     -0.609140    15A     -0.583920  
      16A     -0.461404    17A     -0.370721    18A     -0.346048  

    Virtual:                                                              

      19A      0.022366    20A      0.030764    21A      0.039725  
      22A      0.042367    23A      0.043835    24A      0.049159  
      25A      0.063519    26A      0.065556    27A      0.083660  
      28A      0.090442    29A      0.098677    30A      0.100998  
      31A      0.104029    32A      0.117179    33A      0.118068  
      34A      0.125541    35A      0.126270    36A      0.127954  
      37A      0.133045    38A      0.133096    39A      0.133816  
      40A      0.138403    41A      0.141490    42A      0.156887  
      43A      0.158296    44A      0.164592    45A      0.165651  
      46A      0.171075    47A      0.178407    48A      0.178893  
      49A      0.195165    50A      0.196042    51A      0.201182  
      52A      0.204793    53A      0.206162    54A      0.222627  
      55A      0.224855    56A      0.227974    57A      0.235259  
      58A      0.240236    59A      0.243626    60A      0.244965  
      61A      0.263809    62A      0.270688    63A      0.271127  
      64A      0.279080    65A      0.301010    66A      0.321650  
      67A      0.325148    68A      0.339788    69A      0.352358  
      70A      0.355357    71A      0.366251    72A      0.372623  
      73A      0.374907    74A      0.383440    75A      0.396061  
      76A      0.402741    77A      0.414998    78A      0.427167  
      79A      0.431770    80A      0.432132    81A      0.440902  
      82A      0.442042    83A      0.443385    84A      0.453393  
      85A      0.455693    86A      0.457142    87A      0.459816  
      88A      0.461585    89A      0.478655    90A      0.498543  
      91A      0.508690    92A      0.509424    93A      0.519105  
      94A      0.521917    95A      0.532814    96A      0.537782  
      97A      0.541560    98A      0.559031    99A      0.568494  
     100A      0.571565   101A      0.574432   102A      0.586318  
     103A      0.590538   104A      0.594896   105A      0.602413  
     106A      0.613108   107A      0.620949   108A      0.620969  
     109A      0.633244   110A      0.646110   111A      0.655295  
     112A      0.676161   113A      0.690562   114A      0.698041  
     115A      0.700391   116A      0.707542   117A      0.719162  
     118A      0.721667   119A      0.725115   120A      0.735382  
     121A      0.745102   122A      0.747709   123A      0.758592  
     124A      0.773318   125A      0.781481   126A      0.789427  
     127A      0.797821   128A      0.814184   129A      0.820668  
     130A      0.828504   131A      0.838230   132A      0.848393  
     133A      0.851677   134A      0.854821   135A      0.870763  
     136A      0.880803   137A      0.881395   138A      0.888767  
     139A      0.895413   140A      0.906950   141A      0.915879  
     142A      0.924815   143A      0.942583   144A      0.951829  
     145A      0.978222   146A      0.984850   147A      0.996925  
     148A      1.011149   149A      1.023947   150A      1.029993  
     151A      1.046606   152A      1.051398   153A      1.066503  
     154A      1.070890   155A      1.080786   156A      1.100852  
     157A      1.107946   158A      1.128058   159A      1.134196  
     160A      1.150235   161A      1.158563   162A      1.166087  
     163A      1.175168   164A      1.184775   165A      1.220548  
     166A      1.221484   167A      1.236817   168A      1.267790  
     169A      1.269557   170A      1.293518   171A      1.303342  
     172A      1.311399   173A      1.314955   174A      1.340503  
     175A      1.365807   176A      1.381657   177A      1.401043  
     178A      1.434795   179A      1.444519   180A      1.474691  
     181A      1.493026   182A      1.506827   183A      1.512027  
     184A      1.526129   185A      1.560989   186A      1.590882  
     187A      1.608669   188A      1.637437   189A      1.669472  
     190A      1.676529   191A      1.688708   192A      1.703634  
     193A      1.723950   194A      1.749215   195A      1.764373  
     196A      1.805048   197A      1.875633   198A      1.932390  
     199A      1.943558   200A      1.988067   201A      2.021445  
     202A      2.040916   203A      2.057611   204A      2.088839  
     205A      2.108893   206A      2.134681   207A      2.144687  
     208A      2.167961   209A      2.190005   210A      2.200827  
     211A      2.216476   212A      2.230457   213A      2.233708  
     214A      2.261708   215A      2.275825   216A      2.277612  
     217A      2.289104   218A      2.307640   219A      2.335539  
     220A      2.360716   221A      2.380439   222A      2.389130  
     223A      2.393822   224A      2.394365   225A      2.435246  
     226A      2.443711   227A      2.464967   228A      2.478169  
     229A      2.499752   230A      2.513410   231A      2.531798  
     232A      2.548656   233A      2.570232   234A      2.584716  
     235A      2.631174   236A      2.642961   237A      2.667344  
     238A      2.702832   239A      2.718720   240A      2.733029  
     241A      2.826838   242A      2.827759   243A      2.834751  
     244A      2.869606   245A      2.889868   246A      2.901587  
     247A      2.918598   248A      2.944990   249A      2.999157  
     250A      3.027902   251A      3.055324   252A      3.089666  
     253A      3.092358   254A      3.122730   255A      3.139876  
     256A      3.181810   257A      3.188930   258A      3.222008  
     259A      3.253973   260A      3.289034   261A      3.297865  
     262A      3.355595   263A      3.380236   264A      3.395436  
     265A      3.423300   266A      3.448144   267A      3.487006  
     268A      3.497353   269A      3.520727   270A      3.633412  
     271A      3.666782   272A      3.686563   273A      3.735462  
     274A      3.769909   275A      3.850966   276A      3.889327  
     277A      3.964242   278A      4.035340   279A      4.094590  
     280A      4.209428   281A      4.243919   282A      4.448277  
     283A      4.463235   284A      4.658264   285A      4.707866  
     286A      4.749781   287A      4.810620   288A      4.994712  
     289A      5.076644   290A      5.241294   291A      5.531091  
     292A      5.668785   293A      5.826683   294A      6.106543  
     295A      6.318192   296A      6.708245   297A      6.967703  
     298A     18.111051   299A     18.647721   300A     19.373445  
     301A     25.245397   302A     25.704776  

    Final Occupation by Irrep:
              A 
    DOCC [    18 ]

  @DF-RHF Final Energy:  -224.76233952272486

   => Energetics <=

    Nuclear Repulsion Energy =            166.6240564503272026
    One-Electron Energy =                -633.4992733988500504
    Two-Electron Energy =                 242.1128774257979899
    Total Energy =                       -224.7623395227248579

Computation Completed


Properties will be evaluated at   0.000000,   0.000000,   0.000000 [a0]

Properties computed using the SCF density matrix

  Nuclear Dipole Moment: [e a0]
     X:   162.5886      Y:  -104.5054      Z:    23.1563

  Electronic Dipole Moment: [e a0]
     X:  -162.9913      Y:   105.1370      Z:   -22.5767

  Dipole Moment: [e a0]
     X:    -0.4027      Y:     0.6317      Z:     0.5796     Total:     0.9472

  Dipole Moment: [D]
     X:    -1.0235      Y:     1.6055      Z:     1.4733     Total:     2.4075


*** tstop() called on ds1 at Mon Oct  4 15:21:15 2021
Module time:
	user time   =      16.02 seconds =       0.27 minutes
	system time =       0.36 seconds =       0.01 minutes
	total time  =          4 seconds =       0.07 minutes
Total time:
	user time   =      39.10 seconds =       0.65 minutes
	system time =       0.94 seconds =       0.02 minutes
	total time  =          9 seconds =       0.15 minutes

  //>>>>>>>>>>>>>>>>>>>>>>>>>>>>>>>>>>>//
  //            Monomer B HF           //
  //<<<<<<<<<<<<<<<<<<<<<<<<<<<<<<<<<<<//


*** tstart() called on ds1
*** at Mon Oct  4 15:21:15 2021

   => Loading Basis Set <=

    Name: AUG-CC-PVDZ
    Role: ORBITAL
    Keyword: BASIS
    atoms 1-2, 10-11 entry N          line   218 file /theoryfs2/ds/csargent/miniconda3/envs/cle/share/psi4/basis/aug-cc-pvdz.gbs 
    atoms 3-6, 12-15 entry H          line    40 file /theoryfs2/ds/csargent/miniconda3/envs/cle/share/psi4/basis/aug-cc-pvdz.gbs 
    atoms 7-9, 16-18 entry C          line   182 file /theoryfs2/ds/csargent/miniconda3/envs/cle/share/psi4/basis/aug-cc-pvdz.gbs 


         ---------------------------------------------------------
                                   SCF
               by Justin Turney, Rob Parrish, Andy Simmonett
                          and Daniel G. A. Smith
                              RHF Reference
                        6 Threads,   6675 MiB Core
         ---------------------------------------------------------

  ==> Geometry <==

    Molecular point group: c1
    Full point group: C1

    Geometry (in Bohr), charge = 0, multiplicity = 1:

       Center              X                  Y                   Z               Mass       
    ------------   -----------------  -----------------  -----------------  -----------------
      Gh(N)           6.279812100000    -4.253033720000     0.193138650000    14.003074004430
      Gh(N)           6.068707770000    -2.281256970000     1.805443170000    14.003074004430
      Gh(H)           3.668711560000    -5.646289410000    -1.966840010000     1.007825032230
      Gh(H)           0.690345210000    -2.375456940000    -0.428642360000     1.007825032230
      Gh(H)           3.359174420000     0.176506010000     3.092650170000     1.007825032230
      Gh(H)           7.352667820000    -1.994613110000     2.906807020000     1.007825032230
      Gh(C)           3.779525860000    -1.215084530000     1.768581720000    12.000000000000
      Gh(C)           2.382429980000    -2.555055380000     0.046076810000    12.000000000000
      Gh(C)           4.017714680000    -4.384104900000    -0.887618630000    12.000000000000
         N           -9.197044870000    19.534838750000   -12.605976400000    14.003074004430
         N           -9.408149200000    21.506615500000   -10.993671880000    14.003074004430
         H          -11.808145410000    18.141583060000   -14.765955060000     1.007825032230
         H          -14.786511760000    21.412415520000   -13.227757410000     1.007825032230
         H          -12.117682550000    23.964378480000    -9.706464880000     1.007825032230
         H           -8.124189140000    21.793259360000    -9.892308030000     1.007825032230
         C          -11.697331110000    22.572787940000   -11.030533330000    12.000000000000
         C          -13.094426990000    21.232817090000   -12.753038230000    12.000000000000
         C          -11.459142280000    19.403767570000   -13.686733680000    12.000000000000

  Running in c1 symmetry.

  Rotational constants: A =      0.05090  B =      0.00121  C =      0.00120 [cm^-1]
  Rotational constants: A =   1526.03989  B =     36.29488  C =     35.96031 [MHz]
  Nuclear repulsion =  166.624056485454247

  Charge       = 0
  Multiplicity = 1
  Electrons    = 36
  Nalpha       = 18
  Nbeta        = 18

  ==> Algorithm <==

  SCF Algorithm Type is DF.
  DIIS enabled.
  MOM disabled.
  Fractional occupation disabled.
  Guess Type is SAD.
  Energy threshold   = 1.00e-10
  Density threshold  = 1.00e-10
  Integral threshold = 1.00e-12

  ==> Primary Basis <==

  Basis Set: AUG-CC-PVDZ
    Blend: AUG-CC-PVDZ
    Number of shells: 130
    Number of basis functions: 302
    Number of Cartesian functions: 322
    Spherical Harmonics?: true
    Max angular momentum: 2

   => Loading Basis Set <=

    Name: (AUG-CC-PVDZ AUX)
    Role: JKFIT
    Keyword: DF_BASIS_SCF
    atoms 1-2, 10-11 entry N          line   212 file /theoryfs2/ds/csargent/miniconda3/envs/cle/share/psi4/basis/aug-cc-pvdz-jkfit.gbs 
    atoms 3-6, 12-15 entry H          line    70 file /theoryfs2/ds/csargent/miniconda3/envs/cle/share/psi4/basis/aug-cc-pvdz-jkfit.gbs 
    atoms 7-9, 16-18 entry C          line   154 file /theoryfs2/ds/csargent/miniconda3/envs/cle/share/psi4/basis/aug-cc-pvdz-jkfit.gbs 

  ==> Integral Setup <==

  ==> DiskDFJK: Density-Fitted J/K Matrices <==

    J tasked:                  Yes
    K tasked:                  Yes
    wK tasked:                  No
    OpenMP threads:              6
    Integrals threads:           6
    Memory [MiB]:             5006
    Algorithm:                Core
    Integral Cache:           LOAD
    Schwarz Cutoff:          1E-12
    Fitting Condition:       1E-10

   => Auxiliary Basis Set <=

  Basis Set: (AUG-CC-PVDZ AUX)
    Blend: AUG-CC-PVDZ-JKFIT
    Number of shells: 376
    Number of basis functions: 1116
    Number of Cartesian functions: 1290
    Spherical Harmonics?: true
    Max angular momentum: 3

  Minimum eigenvalue in the overlap matrix is 3.0333721376E-05.
  Reciprocal condition number of the overlap matrix is 2.4874811988E-06.
    Using symmetric orthogonalization.

  ==> Pre-Iterations <==

  SCF Guess: Superposition of Atomic Densities via on-the-fly atomic UHF (no occupation information).

   -------------------------
    Irrep   Nso     Nmo    
   -------------------------
     A        302     302 
   -------------------------
    Total     302     302
   -------------------------

  ==> Iterations <==

                           Total Energy        Delta E     RMS |[F,P]|

   @DF-RHF iter SAD:  -224.72194801749549   -2.24722e+02   0.00000e+00 
   @DF-RHF iter   1:  -224.63549170193986    8.64563e-02   1.50472e-03 DIIS
   @DF-RHF iter   2:  -224.73984613517254   -1.04354e-01   6.88462e-04 DIIS
   @DF-RHF iter   3:  -224.76075487404447   -2.09087e-02   1.48626e-04 DIIS
   @DF-RHF iter   4:  -224.76213931782735   -1.38444e-03   6.05310e-05 DIIS
   @DF-RHF iter   5:  -224.76231767258668   -1.78355e-04   1.19893e-05 DIIS
   @DF-RHF iter   6:  -224.76233463006105   -1.69575e-05   4.96772e-06 DIIS
   @DF-RHF iter   7:  -224.76233858609905   -3.95604e-06   2.18806e-06 DIIS
   @DF-RHF iter   8:  -224.76233934684097   -7.60742e-07   1.01700e-06 DIIS
   @DF-RHF iter   9:  -224.76233951448313   -1.67642e-07   2.83302e-07 DIIS
   @DF-RHF iter  10:  -224.76233952330355   -8.82042e-09   8.55547e-08 DIIS
   @DF-RHF iter  11:  -224.76233952399352   -6.89965e-10   1.99714e-08 DIIS
   @DF-RHF iter  12:  -224.76233952403970   -4.61853e-11   5.81092e-09 DIIS
   @DF-RHF iter  13:  -224.76233952404368   -3.97904e-12   2.83097e-09 DIIS
   @DF-RHF iter  14:  -224.76233952404442   -7.38964e-13   9.75191e-10 DIIS
   @DF-RHF iter  15:  -224.76233952404490   -4.83169e-13   4.15548e-10 DIIS
   @DF-RHF iter  16:  -224.76233952404465    2.55795e-13   1.25998e-10 DIIS
   @DF-RHF iter  17:  -224.76233952404505   -3.97904e-13   4.47780e-11 DIIS
  Energy and wave function converged.


  ==> Post-Iterations <==

    Orbital Energies [Eh]
    ---------------------

    Doubly Occupied:                                                      

       1A    -15.636223     2A    -15.592313     3A    -11.279894  
       4A    -11.237784     5A    -11.209891     6A     -1.386922  
       7A     -1.121901     8A     -1.066898     9A     -0.872768  
      10A     -0.837061    11A     -0.757292    12A     -0.645746  
      13A     -0.620834    14A     -0.609140    15A     -0.583920  
      16A     -0.461404    17A     -0.370721    18A     -0.346048  

    Virtual:                                                              

      19A      0.023286    20A      0.030764    21A      0.040563  
      22A      0.042368    23A      0.044796    24A      0.049160  
      25A      0.063519    26A      0.066435    27A      0.084613  
      28A      0.091326    29A      0.099541    30A      0.100998  
      31A      0.104029    32A      0.117178    33A      0.119011  
      34A      0.126269    35A      0.126466    36A      0.128881  
      37A      0.133069    38A      0.134037    39A      0.134771  
      40A      0.138403    41A      0.141490    42A      0.156889  
      43A      0.159225    44A      0.164592    45A      0.166568  
      46A      0.171075    47A      0.178404    48A      0.179814  
      49A      0.196042    50A      0.196062    51A      0.202023  
      52A      0.204793    53A      0.206162    54A      0.223509  
      55A      0.225748    56A      0.228883    57A      0.236176  
      58A      0.240236    59A      0.243626    60A      0.244965  
      61A      0.264682    62A      0.271126    63A      0.271556  
      64A      0.279081    65A      0.301010    66A      0.322533  
      67A      0.325148    68A      0.340711    69A      0.352358  
      70A      0.355357    71A      0.367144    72A      0.373572  
      73A      0.374907    74A      0.384357    75A      0.396061  
      76A      0.402741    77A      0.414998    78A      0.428097  
      79A      0.432131    80A      0.432685    81A      0.441859  
      82A      0.443008    83A      0.443385    84A      0.453393  
      85A      0.456591    86A      0.458053    87A      0.459816  
      88A      0.462500    89A      0.478655    90A      0.498543  
      91A      0.508690    92A      0.510320    93A      0.519997  
      94A      0.521917    95A      0.533715    96A      0.538690  
      97A      0.541560    98A      0.559960    99A      0.569375  
     100A      0.572492   101A      0.574433   102A      0.586319  
     103A      0.590538   104A      0.595810   105A      0.602413  
     106A      0.614055   107A      0.620953   108A      0.621864  
     109A      0.634169   110A      0.646110   111A      0.655295  
     112A      0.676162   113A      0.691451   114A      0.698041  
     115A      0.700391   116A      0.708440   117A      0.720089  
     118A      0.721667   119A      0.725115   120A      0.736314  
     121A      0.746042   122A      0.747709   123A      0.758592  
     124A      0.773318   125A      0.781481   126A      0.790328  
     127A      0.798730   128A      0.815111   129A      0.821597  
     130A      0.828504   131A      0.838230   132A      0.848394  
     133A      0.852617   134A      0.855742   135A      0.871699  
     136A      0.881395   137A      0.881735   138A      0.888767  
     139A      0.896324   140A      0.906950   141A      0.916789  
     142A      0.924815   143A      0.942582   144A      0.952740  
     145A      0.978222   146A      0.984850   147A      0.997835  
     148A      1.011149   149A      1.024873   150A      1.030892  
     151A      1.046606   152A      1.052304   153A      1.066503  
     154A      1.071828   155A      1.081722   156A      1.100852  
     157A      1.108852   158A      1.128058   159A      1.134196  
     160A      1.150235   161A      1.159474   162A      1.166989  
     163A      1.175168   164A      1.185695   165A      1.220548  
     166A      1.222377   167A      1.237719   168A      1.268693  
     169A      1.269557   170A      1.294409   171A      1.303342  
     172A      1.311399   173A      1.315864   174A      1.341407  
     175A      1.365807   176A      1.382563   177A      1.401043  
     178A      1.435687   179A      1.445415   180A      1.474691  
     181A      1.493926   182A      1.507721   183A      1.512027  
     184A      1.526129   185A      1.560989   186A      1.590882  
     187A      1.608669   188A      1.637437   189A      1.669472  
     190A      1.677419   191A      1.689589   192A      1.703634  
     193A      1.723950   194A      1.749215   195A      1.764373  
     196A      1.805048   197A      1.875632   198A      1.932390  
     199A      1.943558   200A      1.988067   201A      2.021445  
     202A      2.041860   203A      2.057611   204A      2.088839  
     205A      2.109826   206A      2.135612   207A      2.144687  
     208A      2.168938   209A      2.190005   210A      2.200827  
     211A      2.217410   212A      2.230457   213A      2.234653  
     214A      2.262644   215A      2.275825   216A      2.278543  
     217A      2.290040   218A      2.307640   219A      2.336454  
     220A      2.360716   221A      2.381365   222A      2.389130  
     223A      2.393822   224A      2.395302   225A      2.435246  
     226A      2.444648   227A      2.464967   228A      2.479101  
     229A      2.500703   230A      2.514300   231A      2.531798  
     232A      2.549604   233A      2.570232   234A      2.584716  
     235A      2.632093   236A      2.642961   237A      2.668262  
     238A      2.703743   239A      2.719640   240A      2.733029  
     241A      2.826838   242A      2.828678   243A      2.834751  
     244A      2.870509   245A      2.890798   246A      2.901587  
     247A      2.918598   248A      2.945907   249A      2.999157  
     250A      3.028818   251A      3.055324   252A      3.090577  
     253A      3.092358   254A      3.122730   255A      3.140811  
     256A      3.182729   257A      3.188930   258A      3.222008  
     259A      3.254876   260A      3.289933   261A      3.297865  
     262A      3.356493   263A      3.380235   264A      3.396337  
     265A      3.424196   266A      3.449062   267A      3.487920  
     268A      3.498296   269A      3.520727   270A      3.634302  
     271A      3.667690   272A      3.686563   273A      3.736381  
     274A      3.770801   275A      3.851860   276A      3.889327  
     277A      3.965172   278A      4.036223   279A      4.095488  
     280A      4.209428   281A      4.244829   282A      4.449180  
     283A      4.463235   284A      4.659150   285A      4.708765  
     286A      4.750710   287A      4.811524   288A      4.995624  
     289A      5.077542   290A      5.242202   291A      5.531994  
     292A      5.669674   293A      5.827586   294A      6.107443  
     295A      6.319147   296A      6.709168   297A      6.968598  
     298A     18.111996   299A     18.648646   300A     19.374390  
     301A     25.246276   302A     25.705661  

    Final Occupation by Irrep:
              A 
    DOCC [    18 ]

  @DF-RHF Final Energy:  -224.76233952404505

   => Energetics <=

    Nuclear Repulsion Energy =            166.6240564854542470
    One-Electron Energy =                -633.4992734718103975
    Two-Electron Energy =                 242.1128774623110758
    Total Energy =                       -224.7623395240450463

Computation Completed


Properties will be evaluated at   0.000000,   0.000000,   0.000000 [a0]

Properties computed using the SCF density matrix

  Nuclear Dipole Moment: [e a0]
     X:  -394.5783      Y:   751.8581      Z:  -437.6119

  Electronic Dipole Moment: [e a0]
     X:   394.1756      Y:  -751.2264      Z:   438.1915

  Dipole Moment: [e a0]
     X:    -0.4027      Y:     0.6317      Z:     0.5796     Total:     0.9472

  Dipole Moment: [D]
     X:    -1.0235      Y:     1.6055      Z:     1.4733     Total:     2.4075


*** tstop() called on ds1 at Mon Oct  4 15:21:18 2021
Module time:
	user time   =      16.76 seconds =       0.28 minutes
	system time =       0.36 seconds =       0.01 minutes
	total time  =          3 seconds =       0.05 minutes
Total time:
	user time   =      55.92 seconds =       0.93 minutes
	system time =       1.30 seconds =       0.02 minutes
	total time  =         12 seconds =       0.20 minutes
  Constructing Basis Sets for SAPT...

   => Loading Basis Set <=

    Name: (AUG-CC-PVDZ AUX)
    Role: RIFIT
    Keyword: DF_BASIS_SAPT
    atoms 1-2, 10-11 entry N          line   158 file /theoryfs2/ds/csargent/miniconda3/envs/cle/share/psi4/basis/aug-cc-pvdz-ri.gbs 
    atoms 3-6, 12-15 entry H          line    30 file /theoryfs2/ds/csargent/miniconda3/envs/cle/share/psi4/basis/aug-cc-pvdz-ri.gbs 
    atoms 7-9, 16-18 entry C          line   112 file /theoryfs2/ds/csargent/miniconda3/envs/cle/share/psi4/basis/aug-cc-pvdz-ri.gbs 


  //>>>>>>>>>>>>>>>>>>>>>>>>>>>>>>>>>>>//
  //               SAPT0               //
  //<<<<<<<<<<<<<<<<<<<<<<<<<<<<<<<<<<<//


*** tstart() called on ds1
*** at Mon Oct  4 15:21:19 2021

        SAPT0  
    Ed Hohenstein
     6 June 2009

      Orbital Information
  --------------------------
    NSO        =       302
    NMO        =       302
    NRI        =       904
    NOCC A     =        18
    NOCC B     =        18
    FOCC A     =         5
    FOCC B     =         5
    NVIR A     =       284
    NVIR B     =       284

    Elst10,r            =     0.000014820313 [Eh]
    Exch10              =     0.000000000000 [Eh]
    Exch10 (S^2)        =     0.000000000000 [Eh]

    Iter     Energy [mEh]          dE [mEh]         Residual      Time [s]
       1      -0.00005659       0.000056586       0.076285511             0
       2      -0.00005218      -0.000004405       0.019932037             0
       3      -0.00005610       0.000003922       0.009196769             0
       4      -0.00005750       0.000001396       0.001786065             0
       5      -0.00005739      -0.000000105       0.000779628             0
       6      -0.00005734      -0.000000056       0.000238945             0
       7      -0.00005734       0.000000001       0.000092382             0
       8      -0.00005734       0.000000005       0.000040339             1
       9      -0.00005735       0.000000001       0.000013043             1
      10      -0.00005734      -0.000000001       0.000004360             1
      11      -0.00005734       0.000000000       0.000001701             1
      12      -0.00005734       0.000000000       0.000000426             1

    CHF Iterations converged


    Iter     Energy [mEh]          dE [mEh]         Residual      Time [s]
       1      -0.00001992       0.000019919       0.044135091             0
       2      -0.00001811      -0.000001807       0.010664340             0
       3      -0.00001920       0.000001090       0.004982542             0
       4      -0.00001967       0.000000470       0.000864181             1
       5      -0.00001963      -0.000000043       0.000417466             1
       6      -0.00001962      -0.000000013       0.000158154             1
       7      -0.00001962       0.000000003       0.000073443             1
       8      -0.00001962       0.000000002       0.000032381             1
       9      -0.00001962      -0.000000000       0.000009140             1
      10      -0.00001962      -0.000000000       0.000002239             1
      11      -0.00001962       0.000000000       0.000001088             1
      12      -0.00001962       0.000000000       0.000000331             2

    CHF Iterations converged

    Ind20,r (A<-B)      =    -0.000000057345 [Eh]
    Ind20,r (B<-A)      =    -0.000000019620 [Eh]
    Ind20,r             =    -0.000000076965 [Eh]
    Exch-Ind20,r (A<-B) =     0.000000000000 [Eh]
    Exch-Ind20,r (B<-A) =     0.000000000000 [Eh]
    Exch-Ind20,r        =     0.000000000000 [Eh]
    Disp20              =    -0.000001271608 [Eh]
    Disp20 (SS)         =    -0.000000635804 [Eh]
    Disp20 (OS)         =    -0.000000635804 [Eh]
    Exch-Disp20         =     0.000000000000 [Eh]
    Exch-Disp20 (SS)    =     0.000000000000 [Eh]
    Exch-Disp20 (OS)    =     0.000000000000 [Eh]

    SAPT Results 
  --------------------------------------------------------------------------------------------------------
    Electrostatics                  0.01482031 [mEh]       0.00929989 [kcal/mol]       0.03891073 [kJ/mol]
      Elst10,r                      0.01482031 [mEh]       0.00929989 [kcal/mol]       0.03891073 [kJ/mol]

    Exchange                        0.00000000 [mEh]       0.00000000 [kcal/mol]       0.00000000 [kJ/mol]
      Exch10                        0.00000000 [mEh]       0.00000000 [kcal/mol]       0.00000000 [kJ/mol]
      Exch10(S^2)                   0.00000000 [mEh]       0.00000000 [kcal/mol]       0.00000000 [kJ/mol]

    Induction                       0.00000635 [mEh]       0.00000398 [kcal/mol]       0.00001667 [kJ/mol]
      Ind20,r                      -0.00007696 [mEh]      -0.00004830 [kcal/mol]      -0.00020207 [kJ/mol]
      Exch-Ind20,r                  0.00000000 [mEh]       0.00000000 [kcal/mol]       0.00000000 [kJ/mol]
      delta HF,r (2)                0.00008331 [mEh]       0.00005228 [kcal/mol]       0.00021874 [kJ/mol]

    Dispersion                     -0.00127161 [mEh]      -0.00079795 [kcal/mol]      -0.00333861 [kJ/mol]
      Disp20                       -0.00127161 [mEh]      -0.00079795 [kcal/mol]      -0.00333861 [kJ/mol]
      Exch-Disp20                   0.00000000 [mEh]       0.00000000 [kcal/mol]       0.00000000 [kJ/mol]
      Disp20 (SS)                  -0.00063580 [mEh]      -0.00039897 [kcal/mol]      -0.00166930 [kJ/mol]
      Disp20 (OS)                  -0.00063580 [mEh]      -0.00039897 [kcal/mol]      -0.00166930 [kJ/mol]
      Exch-Disp20 (SS)              0.00000000 [mEh]       0.00000000 [kcal/mol]       0.00000000 [kJ/mol]
      Exch-Disp20 (OS)              0.00000000 [mEh]       0.00000000 [kcal/mol]       0.00000000 [kJ/mol]

  Total HF                          0.01482666 [mEh]       0.00930387 [kcal/mol]       0.03892739 [kJ/mol]
  Total SAPT0                       0.01355505 [mEh]       0.00850592 [kcal/mol]       0.03558879 [kJ/mol]

  Special recipe for scaled SAPT0 (see Manual):
    Electrostatics sSAPT0           0.01482031 [mEh]       0.00929989 [kcal/mol]       0.03891073 [kJ/mol]
    Exchange sSAPT0                 0.00000000 [mEh]       0.00000000 [kcal/mol]       0.00000000 [kJ/mol]
    Induction sSAPT0                0.00000635 [mEh]       0.00000398 [kcal/mol]       0.00001667 [kJ/mol]
    Dispersion sSAPT0              -0.00127161 [mEh]      -0.00079795 [kcal/mol]      -0.00333861 [kJ/mol]
  Total sSAPT0                      0.01355505 [mEh]       0.00850592 [kcal/mol]       0.03558879 [kJ/mol]
  --------------------------------------------------------------------------------------------------------

*** tstop() called on ds1 at Mon Oct  4 15:21:28 2021
Module time:
	user time   =      45.31 seconds =       0.76 minutes
	system time =       4.01 seconds =       0.07 minutes
	total time  =          9 seconds =       0.15 minutes
Total time:
	user time   =     102.21 seconds =       1.70 minutes
	system time =       5.35 seconds =       0.09 minutes
	total time  =         22 seconds =       0.37 minutes


Warning! sapt0 does not have an associated derived wavefunction.The returned wavefunction is the dimer SCF wavefunction.


    Psi4 stopped on: Monday, 04 October 2021 03:21PM
    Psi4 wall time for execution: 0:00:22.07

*** Psi4 exiting successfully. Buy a developer a beer!
