
    -----------------------------------------------------------------------
          Psi4: An Open-Source Ab Initio Electronic Structure Package
                               Psi4 1.4rc3 

                         Git: Rev {HEAD} 080dba6 


    D. G. A. Smith, L. A. Burns, A. C. Simmonett, R. M. Parrish,
    M. C. Schieber, R. Galvelis, P. Kraus, H. Kruse, R. Di Remigio,
    A. Alenaizan, A. M. James, S. Lehtola, J. P. Misiewicz, M. Scheurer,
    R. A. Shaw, J. B. Schriber, Y. Xie, Z. L. Glick, D. A. Sirianni,
    J. S. O'Brien, J. M. Waldrop, A. Kumar, E. G. Hohenstein,
    B. P. Pritchard, B. R. Brooks, H. F. Schaefer III, A. Yu. Sokolov,
    K. Patkowski, A. E. DePrince III, U. Bozkaya, R. A. King,
    F. A. Evangelista, J. M. Turney, T. D. Crawford, C. D. Sherrill,
    J. Chem. Phys. 152(18) 184108 (2020). https://doi.org/10.1063/5.0006002

                            Additional Code Authors
    E. T. Seidl, C. L. Janssen, E. F. Valeev, M. L. Leininger,
    J. F. Gonthier, R. M. Richard, H. R. McAlexander, M. Saitow, X. Wang,
    P. Verma, and M. H. Lechner

             Previous Authors, Complete List of Code Contributors,
                       and Citations for Specific Modules
    https://github.com/psi4/psi4/blob/master/codemeta.json
    https://github.com/psi4/psi4/graphs/contributors
    http://psicode.org/psi4manual/master/introduction.html#citing-psifour

    -----------------------------------------------------------------------


    Psi4 started on: Monday, 04 October 2021 02:11PM

    Process ID: 9764
    Host:       ds1
    PSIDATADIR: /theoryfs2/ds/csargent/miniconda3/envs/cle/share/psi4
    Memory:     500.0 MiB
    Threads:    6
    
  ==> Input File <==

--------------------------------------------------------------------------
# PSI4 file produced by CrystaLattE

# Generated from:               pyrazole.xyz
# Psithon input for N-mer:      2mer-0+352
# Number of atoms per monomer:  [9, 9]
# Number of replicas:           1
# COM priority:                 1.813827634583e-05
# Minimum COM separations:      20.140 
# Separation priority:          2.758472954726e-05
# Minimum monomer separations:  17.514 
# Cutoff priority:              8.334732011141e-07
# Nuclear repulsion energy:     367.2986421459095

memory 7 GB

molecule Dimer_0_352 {
  N            6.27981210      -4.25303372       0.19313865 
  N            6.06870777      -2.28125697       1.80544317 
  H            3.66871156      -5.64628941      -1.96684001 
  H            0.69034521      -2.37545694      -0.42864236 
  H            3.35917442       0.17650601       3.09265017 
  H            7.35266782      -1.99461311       2.90680702 
  C            3.77952586      -1.21508453       1.76858172 
  C            2.38242998      -2.55505538       0.04607681 
  C            4.01771468      -4.38410490      -0.88761863 
--
  N          -20.41714710     -26.08126125      17.65689117 
  N          -20.29828483     -28.11916829      19.19406489 
  H          -17.74398436     -23.68035128      16.93886082 
  H          -14.84934780     -26.12289003      19.69399832 
  H          -17.78577187     -29.83593904      21.59863463 
  H          -21.76069305     -28.92914534      19.57983022 
  C          -18.01544843     -28.44934396      20.22311374 
  C          -16.53245600     -26.51967174      19.33319127 
  C          -18.09376133     -25.13450393      17.74149332 
units = au
no_com
no_reorient
}

set {
  e_convergence 10
  d_convergence 10
  scf_type df
  mp2_type df
  cc_type df
  freeze_core true
}

energy('sapt0/aug-cc-pvdz')

--------------------------------------------------------------------------

  Memory set to   6.519 GiB by Python driver.

Scratch directory: /scratch/csargent/psi4.7158.66302/

Scratch directory: /scratch/csargent/psi4.7158.66302/

  //>>>>>>>>>>>>>>>>>>>>>>>>>>>>>>>>>>>//
  //              Dimer HF             //
  //<<<<<<<<<<<<<<<<<<<<<<<<<<<<<<<<<<<//


*** tstart() called on ds1
*** at Mon Oct  4 14:11:04 2021

   => Loading Basis Set <=

    Name: AUG-CC-PVDZ
    Role: ORBITAL
    Keyword: BASIS
    atoms 1-2, 10-11 entry N          line   218 file /theoryfs2/ds/csargent/miniconda3/envs/cle/share/psi4/basis/aug-cc-pvdz.gbs 
    atoms 3-6, 12-15 entry H          line    40 file /theoryfs2/ds/csargent/miniconda3/envs/cle/share/psi4/basis/aug-cc-pvdz.gbs 
    atoms 7-9, 16-18 entry C          line   182 file /theoryfs2/ds/csargent/miniconda3/envs/cle/share/psi4/basis/aug-cc-pvdz.gbs 


         ---------------------------------------------------------
                                   SCF
               by Justin Turney, Rob Parrish, Andy Simmonett
                          and Daniel G. A. Smith
                              RHF Reference
                        6 Threads,   6675 MiB Core
         ---------------------------------------------------------

  ==> Geometry <==

    Molecular point group: c1
    Full point group: C1

    Geometry (in Bohr), charge = 0, multiplicity = 1:

       Center              X                  Y                   Z               Mass       
    ------------   -----------------  -----------------  -----------------  -----------------
         N            6.279812100000    -4.253033720000     0.193138650000    14.003074004430
         N            6.068707770000    -2.281256970000     1.805443170000    14.003074004430
         H            3.668711560000    -5.646289410000    -1.966840010000     1.007825032230
         H            0.690345210000    -2.375456940000    -0.428642360000     1.007825032230
         H            3.359174420000     0.176506010000     3.092650170000     1.007825032230
         H            7.352667820000    -1.994613110000     2.906807020000     1.007825032230
         C            3.779525860000    -1.215084530000     1.768581720000    12.000000000000
         C            2.382429980000    -2.555055380000     0.046076810000    12.000000000000
         C            4.017714680000    -4.384104900000    -0.887618630000    12.000000000000
         N          -20.417147100000   -26.081261250000    17.656891170000    14.003074004430
         N          -20.298284830000   -28.119168290000    19.194064890000    14.003074004430
         H          -17.743984360000   -23.680351280000    16.938860820000     1.007825032230
         H          -14.849347800000   -26.122890030000    19.693998320000     1.007825032230
         H          -17.785771870000   -29.835939040000    21.598634630000     1.007825032230
         H          -21.760693050000   -28.929145340000    19.579830220000     1.007825032230
         C          -18.015448430000   -28.449343960000    20.223113740000    12.000000000000
         C          -16.532456000000   -26.519671740000    19.333191270000    12.000000000000
         C          -18.093761330000   -25.134503930000    17.741493320000    12.000000000000

  Running in c1 symmetry.

  Rotational constants: A =      0.02352  B =      0.00062  C =      0.00060 [cm^-1]
  Rotational constants: A =    705.15151  B =     18.48381  C =     18.08626 [MHz]
  Nuclear repulsion =  367.298642087185272

  Charge       = 0
  Multiplicity = 1
  Electrons    = 72
  Nalpha       = 36
  Nbeta        = 36

  ==> Algorithm <==

  SCF Algorithm Type is DF.
  DIIS enabled.
  MOM disabled.
  Fractional occupation disabled.
  Guess Type is SAD.
  Energy threshold   = 1.00e-10
  Density threshold  = 1.00e-10
  Integral threshold = 1.00e-12

  ==> Primary Basis <==

  Basis Set: AUG-CC-PVDZ
    Blend: AUG-CC-PVDZ
    Number of shells: 130
    Number of basis functions: 302
    Number of Cartesian functions: 322
    Spherical Harmonics?: true
    Max angular momentum: 2

   => Loading Basis Set <=

    Name: (AUG-CC-PVDZ AUX)
    Role: JKFIT
    Keyword: DF_BASIS_SCF
    atoms 1-2, 10-11 entry N          line   212 file /theoryfs2/ds/csargent/miniconda3/envs/cle/share/psi4/basis/aug-cc-pvdz-jkfit.gbs 
    atoms 3-6, 12-15 entry H          line    70 file /theoryfs2/ds/csargent/miniconda3/envs/cle/share/psi4/basis/aug-cc-pvdz-jkfit.gbs 
    atoms 7-9, 16-18 entry C          line   154 file /theoryfs2/ds/csargent/miniconda3/envs/cle/share/psi4/basis/aug-cc-pvdz-jkfit.gbs 

  ==> Integral Setup <==

  ==> DiskDFJK: Density-Fitted J/K Matrices <==

    J tasked:                  Yes
    K tasked:                  Yes
    wK tasked:                  No
    OpenMP threads:              6
    Integrals threads:           6
    Memory [MiB]:             5006
    Algorithm:                Core
    Integral Cache:           SAVE
    Schwarz Cutoff:          1E-12
    Fitting Condition:       1E-10

   => Auxiliary Basis Set <=

  Basis Set: (AUG-CC-PVDZ AUX)
    Blend: AUG-CC-PVDZ-JKFIT
    Number of shells: 376
    Number of basis functions: 1116
    Number of Cartesian functions: 1290
    Spherical Harmonics?: true
    Max angular momentum: 3

  Minimum eigenvalue in the overlap matrix is 3.0324469372E-05.
  Reciprocal condition number of the overlap matrix is 2.4867199437E-06.
    Using symmetric orthogonalization.

  ==> Pre-Iterations <==

  SCF Guess: Superposition of Atomic Densities via on-the-fly atomic UHF (no occupation information).

   -------------------------
    Irrep   Nso     Nmo    
   -------------------------
     A        302     302 
   -------------------------
    Total     302     302
   -------------------------

  ==> Iterations <==

                           Total Energy        Delta E     RMS |[F,P]|

   @DF-RHF iter SAD:  -449.44445655691879   -4.49444e+02   0.00000e+00 
   @DF-RHF iter   1:  -449.27104356040320    1.73413e-01   2.12821e-03 DIIS
   @DF-RHF iter   2:  -449.47976369650200   -2.08720e-01   9.73942e-04 DIIS
   @DF-RHF iter   3:  -449.52160704903793   -4.18434e-02   2.10265e-04 DIIS
   @DF-RHF iter   4:  -449.52437692617923   -2.76988e-03   8.56595e-05 DIIS
   @DF-RHF iter   5:  -449.52473404845381   -3.57122e-04   1.69499e-05 DIIS
   @DF-RHF iter   6:  -449.52476794288873   -3.38944e-05   7.02266e-06 DIIS
   @DF-RHF iter   7:  -449.52477584706179   -7.90417e-06   3.09275e-06 DIIS
   @DF-RHF iter   8:  -449.52477736759164   -1.52053e-06   1.43760e-06 DIIS
   @DF-RHF iter   9:  -449.52477770265239   -3.35061e-07   4.00621e-07 DIIS
   @DF-RHF iter  10:  -449.52477772028533   -1.76329e-08   1.20983e-07 DIIS
   @DF-RHF iter  11:  -449.52477772166390   -1.37857e-09   2.82280e-08 DIIS
   @DF-RHF iter  12:  -449.52477772175604   -9.21432e-11   8.21006e-09 DIIS
   @DF-RHF iter  13:  -449.52477772176530   -9.26548e-12   4.00137e-09 DIIS
   @DF-RHF iter  14:  -449.52477772176695   -1.64846e-12   1.37930e-09 DIIS
   @DF-RHF iter  15:  -449.52477772176604    9.09495e-13   5.87499e-10 DIIS
   @DF-RHF iter  16:  -449.52477772176701   -9.66338e-13   1.78884e-10 DIIS
   @DF-RHF iter  17:  -449.52477772176678    2.27374e-13   6.43778e-11 DIIS
  Energy and wave function converged.


  ==> Post-Iterations <==

    Orbital Energies [Eh]
    ---------------------

    Doubly Occupied:                                                      

       1A    -15.636257     2A    -15.636002     3A    -15.592318  
       4A    -15.592090     5A    -11.279924     6A    -11.279666  
       7A    -11.237787     8A    -11.237555     9A    -11.209904  
      10A    -11.209654    11A     -1.387026    12A     -1.386700  
      13A     -1.121920    14A     -1.121679    15A     -1.066950  
      16A     -1.066668    17A     -0.872784    18A     -0.872540  
      19A     -0.837064    20A     -0.836829    21A     -0.757293  
      22A     -0.757064    23A     -0.645770    24A     -0.645518  
      25A     -0.620852    26A     -0.620600    27A     -0.609201  
      28A     -0.608919    29A     -0.583928    30A     -0.583690  
      31A     -0.461442    32A     -0.461184    33A     -0.370741  
      34A     -0.370494    35A     -0.346077    36A     -0.345820  

    Virtual:                                                              

      37A      0.030755    38A      0.030967    39A      0.042352  
      40A      0.042675    41A      0.049122    42A      0.049380  
      43A      0.063488    44A      0.063770    45A      0.100982  
      46A      0.101213    47A      0.104005    48A      0.104250  
      49A      0.117154    50A      0.117430    51A      0.126255  
      52A      0.126489    53A      0.133049    54A      0.133302  
      55A      0.138391    56A      0.138673    57A      0.141464  
      58A      0.141762    59A      0.156881    60A      0.157165  
      61A      0.164575    62A      0.164867    63A      0.171056  
      64A      0.171293    65A      0.178373    66A      0.178649  
      67A      0.196017    68A      0.196234    69A      0.204776  
      70A      0.205001    71A      0.206134    72A      0.206368  
      73A      0.240211    74A      0.240469    75A      0.243606  
      76A      0.243845    77A      0.244936    78A      0.245184  
      79A      0.271104    80A      0.271346    81A      0.279066  
      82A      0.279291    83A      0.300976    84A      0.301234  
      85A      0.325120    86A      0.325367    87A      0.352334  
      88A      0.352583    89A      0.355336    90A      0.355603  
      91A      0.374888    92A      0.375140    93A      0.396041  
      94A      0.396291    95A      0.402723    96A      0.402968  
      97A      0.414993    98A      0.415269    99A      0.432107  
     100A      0.432354   101A      0.443338   102A      0.443612  
     103A      0.453386   104A      0.453613   105A      0.459785  
     106A      0.460052   107A      0.478636   108A      0.478875  
     109A      0.498512   110A      0.498780   111A      0.508665  
     112A      0.508923   113A      0.521935   114A      0.522149  
     115A      0.541545   116A      0.541796   117A      0.574405  
     118A      0.574654   119A      0.586298   120A      0.586549  
     121A      0.590526   122A      0.590774   123A      0.602414  
     124A      0.602641   125A      0.620953   126A      0.621187  
     127A      0.646089   128A      0.646346   129A      0.655286  
     130A      0.655542   131A      0.676144   132A      0.676397  
     133A      0.698015   134A      0.698277   135A      0.700361  
     136A      0.700623   137A      0.721623   138A      0.721894  
     139A      0.725101   140A      0.725350   141A      0.747691  
     142A      0.747939   143A      0.758619   144A      0.758827  
     145A      0.773276   146A      0.773552   147A      0.781452  
     148A      0.781701   149A      0.828482   150A      0.828729  
     151A      0.838216   152A      0.838458   153A      0.848357  
     154A      0.848628   155A      0.881378   156A      0.881632  
     157A      0.888741   158A      0.889002   159A      0.906926  
     160A      0.907181   161A      0.924779   162A      0.925037  
     163A      0.942575   164A      0.942810   165A      0.978176  
     166A      0.978458   167A      0.984830   168A      0.985079  
     169A      1.011138   170A      1.011367   171A      1.046594  
     172A      1.046820   173A      1.066482   174A      1.066736  
     175A      1.100829   176A      1.101070   177A      1.128074  
     178A      1.128291   179A      1.134127   180A      1.134421  
     181A      1.150217   182A      1.150469   183A      1.175143  
     184A      1.175401   185A      1.220510   186A      1.220772  
     187A      1.269550   188A      1.269786   189A      1.303363  
     190A      1.303565   191A      1.311403   192A      1.311620  
     193A      1.365776   194A      1.366031   195A      1.401017  
     196A      1.401280   197A      1.474680   198A      1.474908  
     199A      1.511996   200A      1.512248   201A      1.526112  
     202A      1.526361   203A      1.560952   204A      1.561220  
     205A      1.590869   206A      1.591117   207A      1.608656  
     208A      1.608902   209A      1.637412   210A      1.637678  
     211A      1.669474   212A      1.669708   213A      1.703611  
     214A      1.703861   215A      1.723932   216A      1.724177  
     217A      1.749223   218A      1.749445   219A      1.764345  
     220A      1.764602   221A      1.804999   222A      1.805276  
     223A      1.875567   224A      1.875863   225A      1.932381  
     226A      1.932618   227A      1.943541   228A      1.943798  
     229A      1.988113   230A      1.988301   231A      2.021427  
     232A      2.021672   233A      2.057638   234A      2.057842  
     235A      2.088788   236A      2.089066   237A      2.144683  
     238A      2.144914   239A      2.189978   240A      2.190236  
     241A      2.200804   242A      2.201061   243A      2.230430  
     244A      2.230682   245A      2.275807   246A      2.276062  
     247A      2.307614   248A      2.307866   249A      2.360620  
     250A      2.360948   251A      2.389095   252A      2.389355  
     253A      2.393734   254A      2.394035   255A      2.435173  
     256A      2.435464   257A      2.464917   258A      2.465181  
     259A      2.531761   260A      2.532025   261A      2.570170  
     262A      2.570459   263A      2.584795   264A      2.584933  
     265A      2.642935   266A      2.643185   267A      2.732991  
     268A      2.733253   269A      2.826781   270A      2.827064  
     271A      2.834682   272A      2.834978   273A      2.901516  
     274A      2.901808   275A      2.918539   276A      2.918817  
     277A      2.999172   278A      2.999386   279A      3.055286  
     280A      3.055547   281A      3.092413   282A      3.092579  
     283A      3.122679   284A      3.122957   285A      3.188985  
     286A      3.189159   287A      3.222006   288A      3.222239  
     289A      3.297886   290A      3.298090   291A      3.380199  
     292A      3.380469   293A      3.520738   294A      3.520950  
     295A      3.686271   296A      3.686795   297A      3.889224  
     298A      3.889546   299A      4.209285   300A      4.209650  
     301A      4.463009   302A      4.463470  

    Final Occupation by Irrep:
              A 
    DOCC [    36 ]

  @DF-RHF Final Energy:  -449.52477772176678

   => Energetics <=

    Nuclear Repulsion Energy =            367.2986420871852715
    One-Electron Energy =               -1335.1070134508283900
    Two-Electron Energy =                 518.2835936418763367
    Total Energy =                       -449.5247777217667817

Computation Completed


Properties will be evaluated at   0.000000,   0.000000,   0.000000 [a0]

Properties computed using the SCF density matrix

  Nuclear Dipole Moment: [e a0]
     X:  -510.4093      Y: -1073.0978      Z:   702.7111

  Electronic Dipole Moment: [e a0]
     X:   510.2970      Y:  1073.1649      Z:  -701.4288

  Dipole Moment: [e a0]
     X:    -0.1122      Y:     0.0671      Z:     1.2823     Total:     1.2889

  Dipole Moment: [D]
     X:    -0.2852      Y:     0.1706      Z:     3.2593     Total:     3.2762


*** tstop() called on ds1 at Mon Oct  4 14:11:09 2021
Module time:
	user time   =      21.92 seconds =       0.37 minutes
	system time =       0.54 seconds =       0.01 minutes
	total time  =          5 seconds =       0.08 minutes
Total time:
	user time   =      21.92 seconds =       0.37 minutes
	system time =       0.54 seconds =       0.01 minutes
	total time  =          5 seconds =       0.08 minutes

  //>>>>>>>>>>>>>>>>>>>>>>>>>>>>>>>>>>>//
  //            Monomer A HF           //
  //<<<<<<<<<<<<<<<<<<<<<<<<<<<<<<<<<<<//


*** tstart() called on ds1
*** at Mon Oct  4 14:11:09 2021

   => Loading Basis Set <=

    Name: AUG-CC-PVDZ
    Role: ORBITAL
    Keyword: BASIS
    atoms 1-2, 10-11 entry N          line   218 file /theoryfs2/ds/csargent/miniconda3/envs/cle/share/psi4/basis/aug-cc-pvdz.gbs 
    atoms 3-6, 12-15 entry H          line    40 file /theoryfs2/ds/csargent/miniconda3/envs/cle/share/psi4/basis/aug-cc-pvdz.gbs 
    atoms 7-9, 16-18 entry C          line   182 file /theoryfs2/ds/csargent/miniconda3/envs/cle/share/psi4/basis/aug-cc-pvdz.gbs 


         ---------------------------------------------------------
                                   SCF
               by Justin Turney, Rob Parrish, Andy Simmonett
                          and Daniel G. A. Smith
                              RHF Reference
                        6 Threads,   6675 MiB Core
         ---------------------------------------------------------

  ==> Geometry <==

    Molecular point group: c1
    Full point group: C1

    Geometry (in Bohr), charge = 0, multiplicity = 1:

       Center              X                  Y                   Z               Mass       
    ------------   -----------------  -----------------  -----------------  -----------------
         N            6.279812100000    -4.253033720000     0.193138650000    14.003074004430
         N            6.068707770000    -2.281256970000     1.805443170000    14.003074004430
         H            3.668711560000    -5.646289410000    -1.966840010000     1.007825032230
         H            0.690345210000    -2.375456940000    -0.428642360000     1.007825032230
         H            3.359174420000     0.176506010000     3.092650170000     1.007825032230
         H            7.352667820000    -1.994613110000     2.906807020000     1.007825032230
         C            3.779525860000    -1.215084530000     1.768581720000    12.000000000000
         C            2.382429980000    -2.555055380000     0.046076810000    12.000000000000
         C            4.017714680000    -4.384104900000    -0.887618630000    12.000000000000
      Gh(N)         -20.417147100000   -26.081261250000    17.656891170000    14.003074004430
      Gh(N)         -20.298284830000   -28.119168290000    19.194064890000    14.003074004430
      Gh(H)         -17.743984360000   -23.680351280000    16.938860820000     1.007825032230
      Gh(H)         -14.849347800000   -26.122890030000    19.693998320000     1.007825032230
      Gh(H)         -17.785771870000   -29.835939040000    21.598634630000     1.007825032230
      Gh(H)         -21.760693050000   -28.929145340000    19.579830220000     1.007825032230
      Gh(C)         -18.015448430000   -28.449343960000    20.223113740000    12.000000000000
      Gh(C)         -16.532456000000   -26.519671740000    19.333191270000    12.000000000000
      Gh(C)         -18.093761330000   -25.134503930000    17.741493320000    12.000000000000

  Running in c1 symmetry.

  Rotational constants: A =      0.02352  B =      0.00062  C =      0.00060 [cm^-1]
  Rotational constants: A =    705.15151  B =     18.48381  C =     18.08626 [MHz]
  Nuclear repulsion =  166.624056450327203

  Charge       = 0
  Multiplicity = 1
  Electrons    = 36
  Nalpha       = 18
  Nbeta        = 18

  ==> Algorithm <==

  SCF Algorithm Type is DF.
  DIIS enabled.
  MOM disabled.
  Fractional occupation disabled.
  Guess Type is SAD.
  Energy threshold   = 1.00e-10
  Density threshold  = 1.00e-10
  Integral threshold = 1.00e-12

  ==> Primary Basis <==

  Basis Set: AUG-CC-PVDZ
    Blend: AUG-CC-PVDZ
    Number of shells: 130
    Number of basis functions: 302
    Number of Cartesian functions: 322
    Spherical Harmonics?: true
    Max angular momentum: 2

   => Loading Basis Set <=

    Name: (AUG-CC-PVDZ AUX)
    Role: JKFIT
    Keyword: DF_BASIS_SCF
    atoms 1-2, 10-11 entry N          line   212 file /theoryfs2/ds/csargent/miniconda3/envs/cle/share/psi4/basis/aug-cc-pvdz-jkfit.gbs 
    atoms 3-6, 12-15 entry H          line    70 file /theoryfs2/ds/csargent/miniconda3/envs/cle/share/psi4/basis/aug-cc-pvdz-jkfit.gbs 
    atoms 7-9, 16-18 entry C          line   154 file /theoryfs2/ds/csargent/miniconda3/envs/cle/share/psi4/basis/aug-cc-pvdz-jkfit.gbs 

  ==> Integral Setup <==

  ==> DiskDFJK: Density-Fitted J/K Matrices <==

    J tasked:                  Yes
    K tasked:                  Yes
    wK tasked:                  No
    OpenMP threads:              6
    Integrals threads:           6
    Memory [MiB]:             5006
    Algorithm:                Core
    Integral Cache:           LOAD
    Schwarz Cutoff:          1E-12
    Fitting Condition:       1E-10

   => Auxiliary Basis Set <=

  Basis Set: (AUG-CC-PVDZ AUX)
    Blend: AUG-CC-PVDZ-JKFIT
    Number of shells: 376
    Number of basis functions: 1116
    Number of Cartesian functions: 1290
    Spherical Harmonics?: true
    Max angular momentum: 3

  Minimum eigenvalue in the overlap matrix is 3.0324469372E-05.
  Reciprocal condition number of the overlap matrix is 2.4867199437E-06.
    Using symmetric orthogonalization.

  ==> Pre-Iterations <==

  SCF Guess: Superposition of Atomic Densities via on-the-fly atomic UHF (no occupation information).

   -------------------------
    Irrep   Nso     Nmo    
   -------------------------
     A        302     302 
   -------------------------
    Total     302     302
   -------------------------

  ==> Iterations <==

                           Total Energy        Delta E     RMS |[F,P]|

   @DF-RHF iter SAD:  -224.72194801295430   -2.24722e+02   0.00000e+00 
   @DF-RHF iter   1:  -224.63549169953296    8.64563e-02   1.50472e-03 DIIS
   @DF-RHF iter   2:  -224.73984613227717   -1.04354e-01   6.88462e-04 DIIS
   @DF-RHF iter   3:  -224.76075487121685   -2.09087e-02   1.48626e-04 DIIS
   @DF-RHF iter   4:  -224.76213931498060   -1.38444e-03   6.05310e-05 DIIS
   @DF-RHF iter   5:  -224.76231766973589   -1.78355e-04   1.19893e-05 DIIS
   @DF-RHF iter   6:  -224.76233462720859   -1.69575e-05   4.96772e-06 DIIS
   @DF-RHF iter   7:  -224.76233858324588   -3.95604e-06   2.18806e-06 DIIS
   @DF-RHF iter   8:  -224.76233934398797   -7.60742e-07   1.01700e-06 DIIS
   @DF-RHF iter   9:  -224.76233951163010   -1.67642e-07   2.83302e-07 DIIS
   @DF-RHF iter  10:  -224.76233952045044   -8.82034e-09   8.55547e-08 DIIS
   @DF-RHF iter  11:  -224.76233952114029   -6.89852e-10   1.99714e-08 DIIS
   @DF-RHF iter  12:  -224.76233952118639   -4.61000e-11   5.81092e-09 DIIS
   @DF-RHF iter  13:  -224.76233952119071   -4.32010e-12   2.83097e-09 DIIS
   @DF-RHF iter  14:  -224.76233952119154   -8.24230e-13   9.75191e-10 DIIS
   @DF-RHF iter  15:  -224.76233952119156   -2.84217e-14   4.15548e-10 DIIS
   @DF-RHF iter  16:  -224.76233952119210   -5.40012e-13   1.25998e-10 DIIS
   @DF-RHF iter  17:  -224.76233952119190    1.98952e-13   4.47781e-11 DIIS
  Energy and wave function converged.


  ==> Post-Iterations <==

    Orbital Energies [Eh]
    ---------------------

    Doubly Occupied:                                                      

       1A    -15.636223     2A    -15.592313     3A    -11.279894  
       4A    -11.237784     5A    -11.209891     6A     -1.386922  
       7A     -1.121901     8A     -1.066898     9A     -0.872768  
      10A     -0.837061    11A     -0.757292    12A     -0.645746  
      13A     -0.620834    14A     -0.609140    15A     -0.583920  
      16A     -0.461404    17A     -0.370721    18A     -0.346048  

    Virtual:                                                              

      19A      0.022686    20A      0.030764    21A      0.040011  
      22A      0.042368    23A      0.044161    24A      0.049159  
      25A      0.063520    26A      0.065881    27A      0.083987  
      28A      0.090745    29A      0.098960    30A      0.100998  
      31A      0.104029    32A      0.117179    33A      0.118360  
      34A      0.125843    35A      0.126270    36A      0.128267  
      37A      0.133069    38A      0.133389    39A      0.134144  
      40A      0.138403    41A      0.141490    42A      0.156889  
      43A      0.158557    44A      0.164592    45A      0.165970  
      46A      0.171075    47A      0.178408    48A      0.179211  
      49A      0.195505    50A      0.196042    51A      0.201502  
      52A      0.204793    53A      0.206162    54A      0.222950  
      55A      0.225152    56A      0.228264    57A      0.235587  
      58A      0.240236    59A      0.243626    60A      0.244965  
      61A      0.264077    62A      0.271030    63A      0.271127  
      64A      0.279080    65A      0.301010    66A      0.321936  
      67A      0.325148    68A      0.340113    69A      0.352358  
      70A      0.355357    71A      0.366570    72A      0.372924  
      73A      0.374907    74A      0.383741    75A      0.396061  
      76A      0.402741    77A      0.414998    78A      0.427502  
      79A      0.432088    80A      0.432132    81A      0.441212  
      82A      0.442364    83A      0.443385    84A      0.453393  
      85A      0.456028    86A      0.457448    87A      0.459816  
      88A      0.461903    89A      0.478655    90A      0.498543  
      91A      0.508690    92A      0.509755    93A      0.519447  
      94A      0.521917    95A      0.533154    96A      0.538068  
      97A      0.541560    98A      0.559352    99A      0.568855  
     100A      0.571874   101A      0.574432   102A      0.586318  
     103A      0.590538   104A      0.595184   105A      0.602413  
     106A      0.613411   107A      0.620953   108A      0.621283  
     109A      0.633565   110A      0.646110   111A      0.655295  
     112A      0.676161   113A      0.690855   114A      0.698041  
     115A      0.700391   116A      0.707837   117A      0.719487  
     118A      0.721667   119A      0.725115   120A      0.735706  
     121A      0.745402   122A      0.747709   123A      0.758592  
     124A      0.773318   125A      0.781481   126A      0.789728  
     127A      0.798157   128A      0.814484   129A      0.820970  
     130A      0.828504   131A      0.838230   132A      0.848394  
     133A      0.851994   134A      0.855150   135A      0.871051  
     136A      0.881125   137A      0.881395   138A      0.888767  
     139A      0.895720   140A      0.906950   141A      0.916209  
     142A      0.924815   143A      0.942582   144A      0.952157  
     145A      0.978222   146A      0.984850   147A      0.997244  
     148A      1.011149   149A      1.024243   150A      1.030305  
     151A      1.046606   152A      1.051720   153A      1.066503  
     154A      1.071204   155A      1.081073   156A      1.100852  
     157A      1.108288   158A      1.128058   159A      1.134196  
     160A      1.150235   161A      1.158901   162A      1.166405  
     163A      1.175168   164A      1.185090   165A      1.220548  
     166A      1.221852   167A      1.237175   168A      1.268096  
     169A      1.269556   170A      1.293866   171A      1.303342  
     172A      1.311399   173A      1.315282   174A      1.340804  
     175A      1.365807   176A      1.381972   177A      1.401043  
     178A      1.435140   179A      1.444883   180A      1.474691  
     181A      1.493349   182A      1.507200   183A      1.512027  
     184A      1.526129   185A      1.560989   186A      1.590882  
     187A      1.608669   188A      1.637437   189A      1.669472  
     190A      1.676862   191A      1.689029   192A      1.703634  
     193A      1.723950   194A      1.749215   195A      1.764373  
     196A      1.805048   197A      1.875632   198A      1.932390  
     199A      1.943558   200A      1.988067   201A      2.021445  
     202A      2.041220   203A      2.057611   204A      2.088839  
     205A      2.109231   206A      2.134937   207A      2.144687  
     208A      2.168268   209A      2.190005   210A      2.200827  
     211A      2.216769   212A      2.230457   213A      2.234011  
     214A      2.262017   215A      2.275825   216A      2.277867  
     217A      2.289412   218A      2.307640   219A      2.335792  
     220A      2.360716   221A      2.380738   222A      2.389130  
     223A      2.393822   224A      2.394693   225A      2.435246  
     226A      2.444023   227A      2.464967   228A      2.478443  
     229A      2.500092   230A      2.513821   231A      2.531798  
     232A      2.548979   233A      2.570232   234A      2.584716  
     235A      2.631482   236A      2.642961   237A      2.667690  
     238A      2.703189   239A      2.719041   240A      2.733029  
     241A      2.826838   242A      2.828095   243A      2.834751  
     244A      2.869982   245A      2.890182   246A      2.901587  
     247A      2.918598   248A      2.945246   249A      2.999157  
     250A      3.028136   251A      3.055324   252A      3.089912  
     253A      3.092358   254A      3.122730   255A      3.140200  
     256A      3.182041   257A      3.188930   258A      3.222008  
     259A      3.254320   260A      3.289283   261A      3.297865  
     262A      3.355829   263A      3.380235   264A      3.395793  
     265A      3.423576   266A      3.448371   267A      3.487372  
     268A      3.497716   269A      3.520727   270A      3.633782  
     271A      3.667130   272A      3.686563   273A      3.735794  
     274A      3.770297   275A      3.851318   276A      3.889327  
     277A      3.964712   278A      4.035811   279A      4.094939  
     280A      4.209428   281A      4.244249   282A      4.448422  
     283A      4.463235   284A      4.658650   285A      4.708338  
     286A      4.750117   287A      4.811012   288A      4.995027  
     289A      5.076893   290A      5.241421   291A      5.531652  
     292A      5.669210   293A      5.826835   294A      6.107207  
     295A      6.318362   296A      6.707750   297A      6.967680  
     298A     18.111347   299A     18.648233   300A     19.373869  
     301A     25.245616   302A     25.705513  

    Final Occupation by Irrep:
              A 
    DOCC [    18 ]

  @DF-RHF Final Energy:  -224.76233952119190

   => Energetics <=

    Nuclear Repulsion Energy =            166.6240564503272026
    One-Electron Energy =                -633.4992733846074771
    Two-Electron Energy =                 242.1128774130883698
    Total Energy =                       -224.7623395211919046

Computation Completed


Properties will be evaluated at   0.000000,   0.000000,   0.000000 [a0]

Properties computed using the SCF density matrix

  Nuclear Dipole Moment: [e a0]
     X:   162.5886      Y:  -104.5054      Z:    23.1563

  Electronic Dipole Moment: [e a0]
     X:  -162.9913      Y:   105.1370      Z:   -22.5767

  Dipole Moment: [e a0]
     X:    -0.4027      Y:     0.6317      Z:     0.5796     Total:     0.9472

  Dipole Moment: [D]
     X:    -1.0235      Y:     1.6055      Z:     1.4733     Total:     2.4075


*** tstop() called on ds1 at Mon Oct  4 14:11:12 2021
Module time:
	user time   =      15.95 seconds =       0.27 minutes
	system time =       0.32 seconds =       0.01 minutes
	total time  =          3 seconds =       0.05 minutes
Total time:
	user time   =      37.90 seconds =       0.63 minutes
	system time =       0.87 seconds =       0.01 minutes
	total time  =          8 seconds =       0.13 minutes

  //>>>>>>>>>>>>>>>>>>>>>>>>>>>>>>>>>>>//
  //            Monomer B HF           //
  //<<<<<<<<<<<<<<<<<<<<<<<<<<<<<<<<<<<//


*** tstart() called on ds1
*** at Mon Oct  4 14:11:12 2021

   => Loading Basis Set <=

    Name: AUG-CC-PVDZ
    Role: ORBITAL
    Keyword: BASIS
    atoms 1-2, 10-11 entry N          line   218 file /theoryfs2/ds/csargent/miniconda3/envs/cle/share/psi4/basis/aug-cc-pvdz.gbs 
    atoms 3-6, 12-15 entry H          line    40 file /theoryfs2/ds/csargent/miniconda3/envs/cle/share/psi4/basis/aug-cc-pvdz.gbs 
    atoms 7-9, 16-18 entry C          line   182 file /theoryfs2/ds/csargent/miniconda3/envs/cle/share/psi4/basis/aug-cc-pvdz.gbs 


         ---------------------------------------------------------
                                   SCF
               by Justin Turney, Rob Parrish, Andy Simmonett
                          and Daniel G. A. Smith
                              RHF Reference
                        6 Threads,   6675 MiB Core
         ---------------------------------------------------------

  ==> Geometry <==

    Molecular point group: c1
    Full point group: C1

    Geometry (in Bohr), charge = 0, multiplicity = 1:

       Center              X                  Y                   Z               Mass       
    ------------   -----------------  -----------------  -----------------  -----------------
      Gh(N)           6.279812100000    -4.253033720000     0.193138650000    14.003074004430
      Gh(N)           6.068707770000    -2.281256970000     1.805443170000    14.003074004430
      Gh(H)           3.668711560000    -5.646289410000    -1.966840010000     1.007825032230
      Gh(H)           0.690345210000    -2.375456940000    -0.428642360000     1.007825032230
      Gh(H)           3.359174420000     0.176506010000     3.092650170000     1.007825032230
      Gh(H)           7.352667820000    -1.994613110000     2.906807020000     1.007825032230
      Gh(C)           3.779525860000    -1.215084530000     1.768581720000    12.000000000000
      Gh(C)           2.382429980000    -2.555055380000     0.046076810000    12.000000000000
      Gh(C)           4.017714680000    -4.384104900000    -0.887618630000    12.000000000000
         N          -20.417147100000   -26.081261250000    17.656891170000    14.003074004430
         N          -20.298284830000   -28.119168290000    19.194064890000    14.003074004430
         H          -17.743984360000   -23.680351280000    16.938860820000     1.007825032230
         H          -14.849347800000   -26.122890030000    19.693998320000     1.007825032230
         H          -17.785771870000   -29.835939040000    21.598634630000     1.007825032230
         H          -21.760693050000   -28.929145340000    19.579830220000     1.007825032230
         C          -18.015448430000   -28.449343960000    20.223113740000    12.000000000000
         C          -16.532456000000   -26.519671740000    19.333191270000    12.000000000000
         C          -18.093761330000   -25.134503930000    17.741493320000    12.000000000000

  Running in c1 symmetry.

  Rotational constants: A =      0.02352  B =      0.00062  C =      0.00060 [cm^-1]
  Rotational constants: A =    705.15151  B =     18.48381  C =     18.08626 [MHz]
  Nuclear repulsion =  166.628602754798010

  Charge       = 0
  Multiplicity = 1
  Electrons    = 36
  Nalpha       = 18
  Nbeta        = 18

  ==> Algorithm <==

  SCF Algorithm Type is DF.
  DIIS enabled.
  MOM disabled.
  Fractional occupation disabled.
  Guess Type is SAD.
  Energy threshold   = 1.00e-10
  Density threshold  = 1.00e-10
  Integral threshold = 1.00e-12

  ==> Primary Basis <==

  Basis Set: AUG-CC-PVDZ
    Blend: AUG-CC-PVDZ
    Number of shells: 130
    Number of basis functions: 302
    Number of Cartesian functions: 322
    Spherical Harmonics?: true
    Max angular momentum: 2

   => Loading Basis Set <=

    Name: (AUG-CC-PVDZ AUX)
    Role: JKFIT
    Keyword: DF_BASIS_SCF
    atoms 1-2, 10-11 entry N          line   212 file /theoryfs2/ds/csargent/miniconda3/envs/cle/share/psi4/basis/aug-cc-pvdz-jkfit.gbs 
    atoms 3-6, 12-15 entry H          line    70 file /theoryfs2/ds/csargent/miniconda3/envs/cle/share/psi4/basis/aug-cc-pvdz-jkfit.gbs 
    atoms 7-9, 16-18 entry C          line   154 file /theoryfs2/ds/csargent/miniconda3/envs/cle/share/psi4/basis/aug-cc-pvdz-jkfit.gbs 

  ==> Integral Setup <==

  ==> DiskDFJK: Density-Fitted J/K Matrices <==

    J tasked:                  Yes
    K tasked:                  Yes
    wK tasked:                  No
    OpenMP threads:              6
    Integrals threads:           6
    Memory [MiB]:             5006
    Algorithm:                Core
    Integral Cache:           LOAD
    Schwarz Cutoff:          1E-12
    Fitting Condition:       1E-10

   => Auxiliary Basis Set <=

  Basis Set: (AUG-CC-PVDZ AUX)
    Blend: AUG-CC-PVDZ-JKFIT
    Number of shells: 376
    Number of basis functions: 1116
    Number of Cartesian functions: 1290
    Spherical Harmonics?: true
    Max angular momentum: 3

  Minimum eigenvalue in the overlap matrix is 3.0324469372E-05.
  Reciprocal condition number of the overlap matrix is 2.4867199437E-06.
    Using symmetric orthogonalization.

  ==> Pre-Iterations <==

  SCF Guess: Superposition of Atomic Densities via on-the-fly atomic UHF (no occupation information).

   -------------------------
    Irrep   Nso     Nmo    
   -------------------------
     A        302     302 
   -------------------------
    Total     302     302
   -------------------------

  ==> Iterations <==

                           Total Energy        Delta E     RMS |[F,P]|

   @DF-RHF iter SAD:  -224.72250854352041   -2.24723e+02   0.00000e+00 
   @DF-RHF iter   1:  -224.63556596172199    8.69426e-02   1.50490e-03 DIIS
   @DF-RHF iter   2:  -224.73993304928032   -1.04367e-01   6.88620e-04 DIIS
   @DF-RHF iter   3:  -224.76085080270428   -2.09178e-02   1.48614e-04 DIIS
   @DF-RHF iter   4:  -224.76223500134907   -1.38420e-03   6.05151e-05 DIIS
   @DF-RHF iter   5:  -224.76241324584674   -1.78244e-04   1.19848e-05 DIIS
   @DF-RHF iter   6:  -224.76243017899395   -1.69331e-05   4.96323e-06 DIIS
   @DF-RHF iter   7:  -224.76243412683638   -3.94784e-06   2.18627e-06 DIIS
   @DF-RHF iter   8:  -224.76243488637502   -7.59539e-07   1.01631e-06 DIIS
   @DF-RHF iter   9:  -224.76243505388024   -1.67505e-07   2.83280e-07 DIIS
   @DF-RHF iter  10:  -224.76243506269779   -8.81755e-09   8.55270e-08 DIIS
   @DF-RHF iter  11:  -224.76243506338690   -6.89113e-10   1.99678e-08 DIIS
   @DF-RHF iter  12:  -224.76243506343295   -4.60432e-11   5.80973e-09 DIIS
   @DF-RHF iter  13:  -224.76243506343744   -4.49063e-12   2.83582e-09 DIIS
   @DF-RHF iter  14:  -224.76243506343829   -8.52651e-13   9.79832e-10 DIIS
   @DF-RHF iter  15:  -224.76243506343843   -1.42109e-13   4.16538e-10 DIIS
   @DF-RHF iter  16:  -224.76243506343840    2.84217e-14   1.25808e-10 DIIS
   @DF-RHF iter  17:  -224.76243506343889   -4.83169e-13   4.47600e-11 DIIS
  Energy and wave function converged.


  ==> Post-Iterations <==

    Orbital Energies [Eh]
    ---------------------

    Doubly Occupied:                                                      

       1A    -15.636233     2A    -15.592291     3A    -11.279903  
       4A    -11.237759     5A    -11.209884     6A     -1.387001  
       7A     -1.121894     8A     -1.066928     9A     -0.872759  
      10A     -0.837039    11A     -0.757272    12A     -0.645745  
      13A     -0.620828    14A     -0.609177    15A     -0.583905  
      16A     -0.461413    17A     -0.370715    18A     -0.346055  

    Virtual:                                                              

      19A      0.022946    20A      0.030764    21A      0.040289  
      22A      0.042369    23A      0.044424    24A      0.049158  
      25A      0.063519    26A      0.066141    27A      0.084235  
      28A      0.091010    29A      0.099218    30A      0.101001  
      31A      0.104028    32A      0.117186    33A      0.118622  
      34A      0.126128    35A      0.126272    36A      0.128542  
      37A      0.133070    38A      0.133636    39A      0.134417  
      40A      0.138399    41A      0.141487    42A      0.156889  
      43A      0.158853    44A      0.164594    45A      0.166224  
      46A      0.171081    47A      0.178407    48A      0.179461  
      49A      0.195741    50A      0.196040    51A      0.201732  
      52A      0.204806    53A      0.206166    54A      0.223182  
      55A      0.225398    56A      0.228528    57A      0.235829  
      58A      0.240240    59A      0.243627    60A      0.244965  
      61A      0.264337    62A      0.271138    63A      0.271252  
      64A      0.279081    65A      0.301024    66A      0.322193  
      67A      0.325138    68A      0.340363    69A      0.352355  
      70A      0.355359    71A      0.366803    72A      0.373188  
      73A      0.374909    74A      0.384016    75A      0.396062  
      76A      0.402744    77A      0.415005    78A      0.427757  
      79A      0.432131    80A      0.432343    81A      0.441489  
      82A      0.442635    83A      0.443379    84A      0.453414  
      85A      0.456272    86A      0.457710    87A      0.459816  
      88A      0.462152    89A      0.478656    90A      0.498544  
      91A      0.508693    92A      0.509995    93A      0.519685  
      94A      0.521953    95A      0.533395    96A      0.538342  
      97A      0.541569    98A      0.559612    99A      0.569071  
     100A      0.572137   101A      0.574428   102A      0.586322  
     103A      0.590547   104A      0.595466   105A      0.602431  
     106A      0.613671   107A      0.620974   108A      0.621528  
     109A      0.633812   110A      0.646111   111A      0.655304  
     112A      0.676168   113A      0.691126   114A      0.698039  
     115A      0.700384   116A      0.708092   117A      0.719744  
     118A      0.721648   119A      0.725121   120A      0.735968  
     121A      0.745670   122A      0.747717   123A      0.758643  
     124A      0.773300   125A      0.781476   126A      0.789987  
     127A      0.798393   128A      0.814747   129A      0.821228  
     130A      0.828513   131A      0.838238   132A      0.848382  
     133A      0.852254   134A      0.855395   135A      0.871329  
     136A      0.881381   137A      0.881396   138A      0.888762  
     139A      0.895990   140A      0.906950   141A      0.916444  
     142A      0.924803   143A      0.942599   144A      0.952393  
     145A      0.978204   146A      0.984853   147A      0.997488  
     148A      1.011170   149A      1.024511   150A      1.030552  
     151A      1.046624   152A      1.051963   153A      1.066503  
     154A      1.071476   155A      1.081346   156A      1.100853  
     157A      1.108515   158A      1.128099   159A      1.134152  
     160A      1.150240   161A      1.159130   162A      1.166643  
     163A      1.175167   164A      1.185339   165A      1.220538  
     166A      1.222052   167A      1.237386   168A      1.268351  
     169A      1.269573   170A      1.294078   171A      1.303390  
     172A      1.311431   173A      1.315513   174A      1.341060  
     175A      1.365802   176A      1.382212   177A      1.401039  
     178A      1.435353   179A      1.445084   180A      1.474706  
     181A      1.493592   182A      1.507390   183A      1.512021  
     184A      1.526136   185A      1.560976   186A      1.590889  
     187A      1.608679   188A      1.637435   189A      1.669494  
     190A      1.677084   191A      1.689262   192A      1.703636  
     193A      1.723957   194A      1.749249   195A      1.764367  
     196A      1.805025   197A      1.875589   198A      1.932406  
     199A      1.943562   200A      1.988139   201A      2.021453  
     202A      2.041491   203A      2.057662   204A      2.088810  
     205A      2.109481   206A      2.135254   207A      2.144708  
     208A      2.168552   209A      2.189999   210A      2.200828  
     211A      2.217052   212A      2.230454   213A      2.234281  
     214A      2.262280   215A      2.275832   216A      2.278176  
     217A      2.289680   218A      2.307637   219A      2.336114  
     220A      2.360646   221A      2.380996   222A      2.389121  
     223A      2.393758   224A      2.394947   225A      2.435199  
     226A      2.444292   227A      2.464942   228A      2.478743  
     229A      2.500330   230A      2.513983   231A      2.531785  
     232A      2.549241   233A      2.570195   234A      2.584820  
     235A      2.631746   236A      2.642959   237A      2.667920  
     238A      2.703411   239A      2.719297   240A      2.733013  
     241A      2.826807   242A      2.828326   243A      2.834707  
     244A      2.870186   245A      2.890442   246A      2.901543  
     247A      2.918563   248A      2.945557   249A      2.999195  
     250A      3.028477   251A      3.055311   252A      3.090232  
     253A      3.092440   254A      3.122703   255A      3.140451  
     256A      3.182378   257A      3.189011   258A      3.222030  
     259A      3.254536   260A      3.289590   261A      3.297913  
     262A      3.356156   263A      3.380219   264A      3.395994  
     265A      3.423873   266A      3.448708   267A      3.487571  
     268A      3.497932   269A      3.520764   270A      3.633958  
     271A      3.667348   272A      3.686295   273A      3.736029  
     274A      3.770470   275A      3.851538   276A      3.889250  
     277A      3.964815   278A      4.035895   279A      4.095152  
     280A      4.209312   281A      4.244488   282A      4.448835  
     283A      4.463032   284A      4.658812   285A      4.708433  
     286A      4.750353   287A      4.811184   288A      4.995277  
     289A      5.077203   290A      5.241860   291A      5.531650  
     292A      5.669345   293A      5.827252   294A      6.107102  
     295A      6.318769   296A      6.708811   297A      6.968267  
     298A     18.111624   299A     18.648287   300A     19.374025  
     301A     25.245944   302A     25.705337  

    Final Occupation by Irrep:
              A 
    DOCC [    18 ]

  @DF-RHF Final Energy:  -224.76243506343889

   => Energetics <=

    Nuclear Repulsion Energy =            166.6286027547980098
    One-Electron Energy =                -633.5084733002948951
    Two-Electron Energy =                 242.1174354820579993
    Total Energy =                       -224.7624350634388861

Computation Completed


Properties will be evaluated at   0.000000,   0.000000,   0.000000 [a0]

Properties computed using the SCF density matrix

  Nuclear Dipole Moment: [e a0]
     X:  -672.9978      Y:  -968.5925      Z:   679.5548

  Electronic Dipole Moment: [e a0]
     X:   673.2887      Y:   968.0284      Z:  -678.8517

  Dipole Moment: [e a0]
     X:     0.2909      Y:    -0.5640      Z:     0.7031     Total:     0.9472

  Dipole Moment: [D]
     X:     0.7394      Y:    -1.4336      Z:     1.7871     Total:     2.4074


*** tstop() called on ds1 at Mon Oct  4 14:11:16 2021
Module time:
	user time   =      15.33 seconds =       0.26 minutes
	system time =       0.32 seconds =       0.01 minutes
	total time  =          4 seconds =       0.07 minutes
Total time:
	user time   =      53.57 seconds =       0.89 minutes
	system time =       1.20 seconds =       0.02 minutes
	total time  =         12 seconds =       0.20 minutes
  Constructing Basis Sets for SAPT...

   => Loading Basis Set <=

    Name: (AUG-CC-PVDZ AUX)
    Role: RIFIT
    Keyword: DF_BASIS_SAPT
    atoms 1-2, 10-11 entry N          line   158 file /theoryfs2/ds/csargent/miniconda3/envs/cle/share/psi4/basis/aug-cc-pvdz-ri.gbs 
    atoms 3-6, 12-15 entry H          line    30 file /theoryfs2/ds/csargent/miniconda3/envs/cle/share/psi4/basis/aug-cc-pvdz-ri.gbs 
    atoms 7-9, 16-18 entry C          line   112 file /theoryfs2/ds/csargent/miniconda3/envs/cle/share/psi4/basis/aug-cc-pvdz-ri.gbs 


  //>>>>>>>>>>>>>>>>>>>>>>>>>>>>>>>>>>>//
  //               SAPT0               //
  //<<<<<<<<<<<<<<<<<<<<<<<<<<<<<<<<<<<//


*** tstart() called on ds1
*** at Mon Oct  4 14:11:16 2021

        SAPT0  
    Ed Hohenstein
     6 June 2009

      Orbital Information
  --------------------------
    NSO        =       302
    NMO        =       302
    NRI        =       904
    NOCC A     =        18
    NOCC B     =        18
    FOCC A     =         5
    FOCC B     =         5
    NVIR A     =       284
    NVIR B     =       284

    Elst10,r            =    -0.000003195278 [Eh]
    Exch10              =     0.000000000000 [Eh]
    Exch10 (S^2)        =     0.000000000000 [Eh]

    Iter     Energy [mEh]          dE [mEh]         Residual      Time [s]
       1      -0.00000660       0.000006599       0.030322922             0
       2      -0.00000597      -0.000000633       0.006632449             0
       3      -0.00000659       0.000000622       0.002100188             0
       4      -0.00000663       0.000000043       0.000755347             1
       5      -0.00000662      -0.000000010       0.000346425             1
       6      -0.00000661      -0.000000007       0.000122558             1
       7      -0.00000661      -0.000000000       0.000049366             1
       8      -0.00000662       0.000000001       0.000017368             1
       9      -0.00000662      -0.000000000       0.000006961             1
      10      -0.00000661      -0.000000000       0.000001741             1
      11      -0.00000661       0.000000000       0.000000752             1

    CHF Iterations converged


    Iter     Energy [mEh]          dE [mEh]         Residual      Time [s]
       1      -0.00000448       0.000004476       0.020171971             1
       2      -0.00000410      -0.000000376       0.005132724             1
       3      -0.00000436       0.000000263       0.002586897             1
       4      -0.00000449       0.000000122       0.000433244             1
       5      -0.00000447      -0.000000011       0.000231839             1
       6      -0.00000447      -0.000000004       0.000089891             1
       7      -0.00000447       0.000000001       0.000043806             1
       8      -0.00000447       0.000000000       0.000015545             1
       9      -0.00000447      -0.000000000       0.000003714             2
      10      -0.00000447      -0.000000000       0.000000866             2

    CHF Iterations converged

    Ind20,r (A<-B)      =    -0.000000006615 [Eh]
    Ind20,r (B<-A)      =    -0.000000004472 [Eh]
    Ind20,r             =    -0.000000011087 [Eh]
    Exch-Ind20,r (A<-B) =     0.000000000000 [Eh]
    Exch-Ind20,r (B<-A) =     0.000000000000 [Eh]
    Exch-Ind20,r        =     0.000000000000 [Eh]
    Disp20              =    -0.000000378181 [Eh]
    Disp20 (SS)         =    -0.000000189090 [Eh]
    Disp20 (OS)         =    -0.000000189090 [Eh]
    Exch-Disp20         =     0.000000000000 [Eh]
    Exch-Disp20 (SS)    =     0.000000000000 [Eh]
    Exch-Disp20 (OS)    =     0.000000000000 [Eh]

    SAPT Results 
  --------------------------------------------------------------------------------------------------------
    Electrostatics                 -0.00319528 [mEh]      -0.00200507 [kcal/mol]      -0.00838920 [kJ/mol]
      Elst10,r                     -0.00319528 [mEh]      -0.00200507 [kcal/mol]      -0.00838920 [kJ/mol]

    Exchange                        0.00000000 [mEh]       0.00000000 [kcal/mol]       0.00000000 [kJ/mol]
      Exch10                        0.00000000 [mEh]       0.00000000 [kcal/mol]       0.00000000 [kJ/mol]
      Exch10(S^2)                   0.00000000 [mEh]       0.00000000 [kcal/mol]       0.00000000 [kJ/mol]

    Induction                       0.00005814 [mEh]       0.00003648 [kcal/mol]       0.00015265 [kJ/mol]
      Ind20,r                      -0.00001109 [mEh]      -0.00000696 [kcal/mol]      -0.00002911 [kJ/mol]
      Exch-Ind20,r                  0.00000000 [mEh]       0.00000000 [kcal/mol]       0.00000000 [kJ/mol]
      delta HF,r (2)                0.00006923 [mEh]       0.00004344 [kcal/mol]       0.00018176 [kJ/mol]

    Dispersion                     -0.00037818 [mEh]      -0.00023731 [kcal/mol]      -0.00099291 [kJ/mol]
      Disp20                       -0.00037818 [mEh]      -0.00023731 [kcal/mol]      -0.00099291 [kJ/mol]
      Exch-Disp20                   0.00000000 [mEh]       0.00000000 [kcal/mol]       0.00000000 [kJ/mol]
      Disp20 (SS)                  -0.00018909 [mEh]      -0.00011866 [kcal/mol]      -0.00049646 [kJ/mol]
      Disp20 (OS)                  -0.00018909 [mEh]      -0.00011866 [kcal/mol]      -0.00049646 [kJ/mol]
      Exch-Disp20 (SS)              0.00000000 [mEh]       0.00000000 [kcal/mol]       0.00000000 [kJ/mol]
      Exch-Disp20 (OS)              0.00000000 [mEh]       0.00000000 [kcal/mol]       0.00000000 [kJ/mol]

  Total HF                         -0.00313714 [mEh]      -0.00196858 [kcal/mol]      -0.00823655 [kJ/mol]
  Total SAPT0                      -0.00351532 [mEh]      -0.00220589 [kcal/mol]      -0.00922946 [kJ/mol]

  Special recipe for scaled SAPT0 (see Manual):
    Electrostatics sSAPT0          -0.00319528 [mEh]      -0.00200507 [kcal/mol]      -0.00838920 [kJ/mol]
    Exchange sSAPT0                 0.00000000 [mEh]       0.00000000 [kcal/mol]       0.00000000 [kJ/mol]
    Induction sSAPT0                0.00005814 [mEh]       0.00003648 [kcal/mol]       0.00015265 [kJ/mol]
    Dispersion sSAPT0              -0.00037818 [mEh]      -0.00023731 [kcal/mol]      -0.00099291 [kJ/mol]
  Total sSAPT0                     -0.00351532 [mEh]      -0.00220589 [kcal/mol]      -0.00922946 [kJ/mol]
  --------------------------------------------------------------------------------------------------------

*** tstop() called on ds1 at Mon Oct  4 14:11:25 2021
Module time:
	user time   =      43.26 seconds =       0.72 minutes
	system time =       3.71 seconds =       0.06 minutes
	total time  =          9 seconds =       0.15 minutes
Total time:
	user time   =      97.75 seconds =       1.63 minutes
	system time =       4.94 seconds =       0.08 minutes
	total time  =         21 seconds =       0.35 minutes


Warning! sapt0 does not have an associated derived wavefunction.The returned wavefunction is the dimer SCF wavefunction.


    Psi4 stopped on: Monday, 04 October 2021 02:11PM
    Psi4 wall time for execution: 0:00:21.10

*** Psi4 exiting successfully. Buy a developer a beer!
