
    -----------------------------------------------------------------------
          Psi4: An Open-Source Ab Initio Electronic Structure Package
                               Psi4 1.4rc3 

                         Git: Rev {HEAD} 080dba6 


    D. G. A. Smith, L. A. Burns, A. C. Simmonett, R. M. Parrish,
    M. C. Schieber, R. Galvelis, P. Kraus, H. Kruse, R. Di Remigio,
    A. Alenaizan, A. M. James, S. Lehtola, J. P. Misiewicz, M. Scheurer,
    R. A. Shaw, J. B. Schriber, Y. Xie, Z. L. Glick, D. A. Sirianni,
    J. S. O'Brien, J. M. Waldrop, A. Kumar, E. G. Hohenstein,
    B. P. Pritchard, B. R. Brooks, H. F. Schaefer III, A. Yu. Sokolov,
    K. Patkowski, A. E. DePrince III, U. Bozkaya, R. A. King,
    F. A. Evangelista, J. M. Turney, T. D. Crawford, C. D. Sherrill,
    J. Chem. Phys. 152(18) 184108 (2020). https://doi.org/10.1063/5.0006002

                            Additional Code Authors
    E. T. Seidl, C. L. Janssen, E. F. Valeev, M. L. Leininger,
    J. F. Gonthier, R. M. Richard, H. R. McAlexander, M. Saitow, X. Wang,
    P. Verma, and M. H. Lechner

             Previous Authors, Complete List of Code Contributors,
                       and Citations for Specific Modules
    https://github.com/psi4/psi4/blob/master/codemeta.json
    https://github.com/psi4/psi4/graphs/contributors
    http://psicode.org/psi4manual/master/introduction.html#citing-psifour

    -----------------------------------------------------------------------


    Psi4 started on: Monday, 04 October 2021 01:47PM

    Process ID: 8681
    Host:       ds1
    PSIDATADIR: /theoryfs2/ds/csargent/miniconda3/envs/cle/share/psi4
    Memory:     500.0 MiB
    Threads:    6
    
  ==> Input File <==

--------------------------------------------------------------------------
# PSI4 file produced by CrystaLattE

# Generated from:               pyrazole.xyz
# Psithon input for N-mer:      2mer-0+345
# Number of atoms per monomer:  [9, 9]
# Number of replicas:           2
# COM priority:                 1.442160684344e-05
# Minimum COM separations:      21.740 
# Separation priority:          2.225888194090e-05
# Minimum monomer separations:  18.812 
# Cutoff priority:              6.261395373722e-07
# Nuclear repulsion energy:     364.823797080541

memory 7 GB

molecule Dimer_0_345 {
  N            6.27981210      -4.25303372       0.19313865 
  N            6.06870777      -2.28125697       1.80544317 
  H            3.66871156      -5.64628941      -1.96684001 
  H            0.69034521      -2.37545694      -0.42864236 
  H            3.35917442       0.17650601       3.09265017 
  H            7.35266782      -1.99461311       2.90680702 
  C            3.77952586      -1.21508453       1.76858172 
  C            2.38242998      -2.55505538       0.04607681 
  C            4.01771468      -4.38410490      -0.88761863 
--
  N          -24.67390184      19.53483875     -12.60597640 
  N          -24.88500617      21.50661550     -10.99367188 
  H          -27.28500238      18.14158306     -14.76595506 
  H          -30.26336873      21.41241552     -13.22775741 
  H          -27.59453951      23.96437848      -9.70646488 
  H          -23.60104611      21.79325936      -9.89230803 
  C          -27.17418808      22.57278794     -11.03053333 
  C          -28.57128396      21.23281709     -12.75303823 
  C          -26.93599925      19.40376757     -13.68673368 
units = au
no_com
no_reorient
}

set {
  e_convergence 10
  d_convergence 10
  scf_type df
  mp2_type df
  cc_type df
  freeze_core true
}

energy('sapt0/aug-cc-pvdz')

--------------------------------------------------------------------------

  Memory set to   6.519 GiB by Python driver.

Scratch directory: /scratch/csargent/psi4.7158.66302/

Scratch directory: /scratch/csargent/psi4.7158.66302/

  //>>>>>>>>>>>>>>>>>>>>>>>>>>>>>>>>>>>//
  //              Dimer HF             //
  //<<<<<<<<<<<<<<<<<<<<<<<<<<<<<<<<<<<//


*** tstart() called on ds1
*** at Mon Oct  4 13:47:44 2021

   => Loading Basis Set <=

    Name: AUG-CC-PVDZ
    Role: ORBITAL
    Keyword: BASIS
    atoms 1-2, 10-11 entry N          line   218 file /theoryfs2/ds/csargent/miniconda3/envs/cle/share/psi4/basis/aug-cc-pvdz.gbs 
    atoms 3-6, 12-15 entry H          line    40 file /theoryfs2/ds/csargent/miniconda3/envs/cle/share/psi4/basis/aug-cc-pvdz.gbs 
    atoms 7-9, 16-18 entry C          line   182 file /theoryfs2/ds/csargent/miniconda3/envs/cle/share/psi4/basis/aug-cc-pvdz.gbs 


         ---------------------------------------------------------
                                   SCF
               by Justin Turney, Rob Parrish, Andy Simmonett
                          and Daniel G. A. Smith
                              RHF Reference
                        6 Threads,   6675 MiB Core
         ---------------------------------------------------------

  ==> Geometry <==

    Molecular point group: c1
    Full point group: C1

    Geometry (in Bohr), charge = 0, multiplicity = 1:

       Center              X                  Y                   Z               Mass       
    ------------   -----------------  -----------------  -----------------  -----------------
         N            6.279812100000    -4.253033720000     0.193138650000    14.003074004430
         N            6.068707770000    -2.281256970000     1.805443170000    14.003074004430
         H            3.668711560000    -5.646289410000    -1.966840010000     1.007825032230
         H            0.690345210000    -2.375456940000    -0.428642360000     1.007825032230
         H            3.359174420000     0.176506010000     3.092650170000     1.007825032230
         H            7.352667820000    -1.994613110000     2.906807020000     1.007825032230
         C            3.779525860000    -1.215084530000     1.768581720000    12.000000000000
         C            2.382429980000    -2.555055380000     0.046076810000    12.000000000000
         C            4.017714680000    -4.384104900000    -0.887618630000    12.000000000000
         N          -24.673901840000    19.534838750000   -12.605976400000    14.003074004430
         N          -24.885006170000    21.506615500000   -10.993671880000    14.003074004430
         H          -27.285002380000    18.141583060000   -14.765955060000     1.007825032230
         H          -30.263368730000    21.412415520000   -13.227757410000     1.007825032230
         H          -27.594539510000    23.964378480000    -9.706464880000     1.007825032230
         H          -23.601046110000    21.793259360000    -9.892308030000     1.007825032230
         C          -27.174188080000    22.572787940000   -11.030533330000    12.000000000000
         C          -28.571283960000    21.232817090000   -12.753038230000    12.000000000000
         C          -26.935999250000    19.403767570000   -13.686733680000    12.000000000000

  Running in c1 symmetry.

  Rotational constants: A =      0.11133  B =      0.00067  C =      0.00067 [cm^-1]
  Rotational constants: A =   3337.55313  B =     20.17821  C =     20.12221 [MHz]
  Nuclear repulsion =  364.823797130076912

  Charge       = 0
  Multiplicity = 1
  Electrons    = 72
  Nalpha       = 36
  Nbeta        = 36

  ==> Algorithm <==

  SCF Algorithm Type is DF.
  DIIS enabled.
  MOM disabled.
  Fractional occupation disabled.
  Guess Type is SAD.
  Energy threshold   = 1.00e-10
  Density threshold  = 1.00e-10
  Integral threshold = 1.00e-12

  ==> Primary Basis <==

  Basis Set: AUG-CC-PVDZ
    Blend: AUG-CC-PVDZ
    Number of shells: 130
    Number of basis functions: 302
    Number of Cartesian functions: 322
    Spherical Harmonics?: true
    Max angular momentum: 2

   => Loading Basis Set <=

    Name: (AUG-CC-PVDZ AUX)
    Role: JKFIT
    Keyword: DF_BASIS_SCF
    atoms 1-2, 10-11 entry N          line   212 file /theoryfs2/ds/csargent/miniconda3/envs/cle/share/psi4/basis/aug-cc-pvdz-jkfit.gbs 
    atoms 3-6, 12-15 entry H          line    70 file /theoryfs2/ds/csargent/miniconda3/envs/cle/share/psi4/basis/aug-cc-pvdz-jkfit.gbs 
    atoms 7-9, 16-18 entry C          line   154 file /theoryfs2/ds/csargent/miniconda3/envs/cle/share/psi4/basis/aug-cc-pvdz-jkfit.gbs 

  ==> Integral Setup <==

  ==> DiskDFJK: Density-Fitted J/K Matrices <==

    J tasked:                  Yes
    K tasked:                  Yes
    wK tasked:                  No
    OpenMP threads:              6
    Integrals threads:           6
    Memory [MiB]:             5006
    Algorithm:                Core
    Integral Cache:           SAVE
    Schwarz Cutoff:          1E-12
    Fitting Condition:       1E-10

   => Auxiliary Basis Set <=

  Basis Set: (AUG-CC-PVDZ AUX)
    Blend: AUG-CC-PVDZ-JKFIT
    Number of shells: 376
    Number of basis functions: 1116
    Number of Cartesian functions: 1290
    Spherical Harmonics?: true
    Max angular momentum: 3

  Minimum eigenvalue in the overlap matrix is 3.0333777289E-05.
  Reciprocal condition number of the overlap matrix is 2.4874860374E-06.
    Using symmetric orthogonalization.

  ==> Pre-Iterations <==

  SCF Guess: Superposition of Atomic Densities via on-the-fly atomic UHF (no occupation information).

   -------------------------
    Irrep   Nso     Nmo    
   -------------------------
     A        302     302 
   -------------------------
    Total     302     302
   -------------------------

  ==> Iterations <==

                           Total Energy        Delta E     RMS |[F,P]|

   @DF-RHF iter SAD:  -449.44389603071551   -4.49444e+02   0.00000e+00 
   @DF-RHF iter   1:  -449.27094733569453    1.72949e-01   2.12813e-03 DIIS
   @DF-RHF iter   2:  -449.47966591495720   -2.08719e-01   9.73873e-04 DIIS
   @DF-RHF iter   3:  -449.52150482485001   -4.18389e-02   2.10272e-04 DIIS
   @DF-RHF iter   4:  -449.52427514977262   -2.77032e-03   8.56571e-05 DIIS
   @DF-RHF iter   5:  -449.52463230915203   -3.57159e-04   1.69484e-05 DIIS
   @DF-RHF iter   6:  -449.52466622797266   -3.39188e-05   7.02359e-06 DIIS
   @DF-RHF iter   7:  -449.52467414424473   -7.91627e-06   3.08456e-06 DIIS
   @DF-RHF iter   8:  -449.52467566126415   -1.51702e-06   1.43761e-06 DIIS
   @DF-RHF iter   9:  -449.52467599528978   -3.34026e-07   4.00053e-07 DIIS
   @DF-RHF iter  10:  -449.52467601285224   -1.75625e-08   1.21127e-07 DIIS
   @DF-RHF iter  11:  -449.52467601423024   -1.37800e-09   2.82240e-08 DIIS
   @DF-RHF iter  12:  -449.52467601432227   -9.20295e-11   8.20390e-09 DIIS
   @DF-RHF iter  13:  -449.52467601433148   -9.20863e-12   3.99254e-09 DIIS
   @DF-RHF iter  14:  -449.52467601433250   -1.02318e-12   1.37283e-09 DIIS
   @DF-RHF iter  15:  -449.52467601433409   -1.59162e-12   5.85687e-10 DIIS
   @DF-RHF iter  16:  -449.52467601433324    8.52651e-13   1.78013e-10 DIIS
   @DF-RHF iter  17:  -449.52467601433290    3.41061e-13   6.32282e-11 DIIS
  Energy and wave function converged.


  ==> Post-Iterations <==

    Orbital Energies [Eh]
    ---------------------

    Doubly Occupied:                                                      

       1A    -15.636486     2A    -15.635902     3A    -15.592571  
       4A    -15.591987     5A    -11.280152     6A    -11.279567  
       7A    -11.238039     8A    -11.237451     9A    -11.210142  
      10A    -11.209551    11A     -1.387183    12A     -1.386599  
      13A     -1.122162    14A     -1.121578    15A     -1.067154  
      16A     -1.066566    17A     -0.873026    18A     -0.872438  
      19A     -0.837314    20A     -0.836726    21A     -0.757550  
      22A     -0.756966    23A     -0.646003    24A     -0.645415  
      25A     -0.621087    26A     -0.620497    27A     -0.609401  
      28A     -0.608817    29A     -0.584175    30A     -0.583590  
      31A     -0.461665    32A     -0.461081    33A     -0.370977  
      34A     -0.370391    35A     -0.346304    36A     -0.345718  

    Virtual:                                                              

      37A      0.030477    38A      0.031032    39A      0.042157  
      40A      0.042795    41A      0.048889    42A      0.049469  
      43A      0.063270    44A      0.063869    45A      0.100731  
      46A      0.101294    47A      0.103774    48A      0.104356  
      49A      0.116947    50A      0.117539    51A      0.126016  
      52A      0.126595    53A      0.132805    54A      0.133393  
      55A      0.138181    56A      0.138792    57A      0.141262  
      58A      0.141854    59A      0.156659    60A      0.157275  
      61A      0.164368    62A      0.164973    63A      0.170814  
      64A      0.171393    65A      0.178162    66A      0.178751  
      67A      0.195751    68A      0.196323    69A      0.204519  
      70A      0.205099    71A      0.205886    72A      0.206469  
      73A      0.239988    74A      0.240575    75A      0.243368  
      76A      0.243947    77A      0.244703    78A      0.245295  
      79A      0.270867    80A      0.271450    81A      0.278810  
      82A      0.279383    83A      0.300764    84A      0.301342  
      85A      0.324890    86A      0.325466    87A      0.352098  
      88A      0.352678    89A      0.355111    90A      0.355709  
      91A      0.374650    92A      0.375235    93A      0.395807  
      94A      0.396378    95A      0.402482    96A      0.403066  
      97A      0.414763    98A      0.415384    99A      0.431864  
     100A      0.432456   101A      0.443132   102A      0.443713  
     103A      0.453132   104A      0.453716   105A      0.459567  
     106A      0.460145   107A      0.478384   108A      0.478976  
     109A      0.498291   110A      0.498879   111A      0.508435  
     112A      0.509025   113A      0.521661   114A      0.522246  
     115A      0.541311   116A      0.541898   117A      0.574166  
     118A      0.574754   119A      0.586061   120A      0.586647  
     121A      0.590284   122A      0.590875   123A      0.602158  
     124A      0.602742   125A      0.620702   126A      0.621291  
     127A      0.645861   128A      0.646447   129A      0.655051  
     130A      0.655644   131A      0.675908   132A      0.676499  
     133A      0.697790   134A      0.698379   135A      0.700134  
     136A      0.700725   137A      0.721412   138A      0.721992  
     139A      0.724859   140A      0.725449   141A      0.747454  
     142A      0.748038   143A      0.758342   144A      0.758930  
     145A      0.773065   146A      0.773656   147A      0.781218  
     148A      0.781802   149A      0.828247   150A      0.828832  
     151A      0.837969   152A      0.838558   153A      0.848144  
     154A      0.848727   155A      0.881148   156A      0.881740  
     157A      0.888513   158A      0.889100   159A      0.906697  
     160A      0.907284   161A      0.924553   162A      0.925139  
     163A      0.942327   164A      0.942913   165A      0.977970  
     166A      0.978561   167A      0.984596   168A      0.985183  
     169A      1.010889   170A      1.011471   171A      1.046340  
     172A      1.046920   173A      1.066252   174A      1.066837  
     175A      1.100587   176A      1.101169   177A      1.127804  
     178A      1.128395   179A      1.133936   180A      1.134521  
     181A      1.149981   182A      1.150570   183A      1.174914  
     184A      1.175506   185A      1.220289   186A      1.220873  
     187A      1.269301   188A      1.269889   189A      1.303083  
     190A      1.303667   191A      1.311137   192A      1.311721  
     193A      1.365546   194A      1.366135   195A      1.400793  
     196A      1.401383   197A      1.474426   198A      1.475010  
     199A      1.511765   200A      1.512349   201A      1.525877  
     202A      1.526462   203A      1.560737   204A      1.561324  
     205A      1.590630   206A      1.591216   207A      1.608417  
     208A      1.609005   209A      1.637188   210A      1.637780  
     211A      1.669221   212A      1.669812   213A      1.703376  
     214A      1.703960   215A      1.723693   216A      1.724278  
     217A      1.748961   218A      1.749547   219A      1.764117  
     220A      1.764704   221A      1.804794   222A      1.805378  
     223A      1.875376   224A      1.875961   225A      1.932134  
     226A      1.932719   227A      1.943308   228A      1.943901  
     229A      1.987816   230A      1.988405   231A      2.021189  
     232A      2.021774   233A      2.057355   234A      2.057944  
     235A      2.088580   236A      2.089166   237A      2.144430  
     238A      2.145015   239A      2.189751   240A      2.190338  
     241A      2.200575   242A      2.201163   243A      2.230196  
     244A      2.230783   245A      2.275575   246A      2.276167  
     247A      2.307380   248A      2.307968   249A      2.360464  
     250A      2.361050   251A      2.388872   252A      2.389455  
     253A      2.393551   254A      2.394132   255A      2.434983  
     256A      2.435565   257A      2.464697   258A      2.465281  
     259A      2.531540   260A      2.532128   261A      2.569974  
     262A      2.570561   263A      2.584450   264A      2.585032  
     265A      2.642701   266A      2.643286   267A      2.732768  
     268A      2.733352   269A      2.826581   270A      2.827167  
     271A      2.834494   272A      2.835080   273A      2.901325  
     274A      2.901908   275A      2.918334   276A      2.918917  
     277A      2.998900   278A      2.999488   279A      3.055063  
     280A      3.055647   281A      3.092098   282A      3.092681  
     283A      3.122473   284A      3.123058   285A      3.188676  
     286A      3.189264   287A      3.221752   288A      3.222342  
     289A      3.297607   290A      3.298193   291A      3.379981  
     292A      3.380570   293A      3.520467   294A      3.521052  
     295A      3.686309   296A      3.686898   297A      3.889064  
     298A      3.889646   299A      4.209168   300A      4.209752  
     301A      4.462983   302A      4.463573  

    Final Occupation by Irrep:
              A 
    DOCC [    36 ]

  @DF-RHF Final Energy:  -449.52467601433290

   => Energetics <=

    Nuclear Repulsion Energy =            364.8237971300769118
    One-Electron Energy =               -1330.1524873507430584
    Two-Electron Energy =                 515.8040142063332496
    Total Energy =                       -449.5246760143329539

Computation Completed


Properties will be evaluated at   0.000000,   0.000000,   0.000000 [a0]

Properties computed using the SCF density matrix

  Nuclear Dipole Moment: [e a0]
     X:  -789.1566      Y:   647.3527      Z:  -414.4556

  Electronic Dipole Moment: [e a0]
     X:   788.3501      Y:  -646.0893      Z:   415.6135

  Dipole Moment: [e a0]
     X:    -0.8065      Y:     1.2634      Z:     1.1580     Total:     1.8941

  Dipole Moment: [D]
     X:    -2.0499      Y:     3.2113      Z:     2.9432     Total:     4.8142


*** tstop() called on ds1 at Mon Oct  4 13:47:49 2021
Module time:
	user time   =      22.17 seconds =       0.37 minutes
	system time =       0.57 seconds =       0.01 minutes
	total time  =          5 seconds =       0.08 minutes
Total time:
	user time   =      22.17 seconds =       0.37 minutes
	system time =       0.57 seconds =       0.01 minutes
	total time  =          5 seconds =       0.08 minutes

  //>>>>>>>>>>>>>>>>>>>>>>>>>>>>>>>>>>>//
  //            Monomer A HF           //
  //<<<<<<<<<<<<<<<<<<<<<<<<<<<<<<<<<<<//


*** tstart() called on ds1
*** at Mon Oct  4 13:47:49 2021

   => Loading Basis Set <=

    Name: AUG-CC-PVDZ
    Role: ORBITAL
    Keyword: BASIS
    atoms 1-2, 10-11 entry N          line   218 file /theoryfs2/ds/csargent/miniconda3/envs/cle/share/psi4/basis/aug-cc-pvdz.gbs 
    atoms 3-6, 12-15 entry H          line    40 file /theoryfs2/ds/csargent/miniconda3/envs/cle/share/psi4/basis/aug-cc-pvdz.gbs 
    atoms 7-9, 16-18 entry C          line   182 file /theoryfs2/ds/csargent/miniconda3/envs/cle/share/psi4/basis/aug-cc-pvdz.gbs 


         ---------------------------------------------------------
                                   SCF
               by Justin Turney, Rob Parrish, Andy Simmonett
                          and Daniel G. A. Smith
                              RHF Reference
                        6 Threads,   6675 MiB Core
         ---------------------------------------------------------

  ==> Geometry <==

    Molecular point group: c1
    Full point group: C1

    Geometry (in Bohr), charge = 0, multiplicity = 1:

       Center              X                  Y                   Z               Mass       
    ------------   -----------------  -----------------  -----------------  -----------------
         N            6.279812100000    -4.253033720000     0.193138650000    14.003074004430
         N            6.068707770000    -2.281256970000     1.805443170000    14.003074004430
         H            3.668711560000    -5.646289410000    -1.966840010000     1.007825032230
         H            0.690345210000    -2.375456940000    -0.428642360000     1.007825032230
         H            3.359174420000     0.176506010000     3.092650170000     1.007825032230
         H            7.352667820000    -1.994613110000     2.906807020000     1.007825032230
         C            3.779525860000    -1.215084530000     1.768581720000    12.000000000000
         C            2.382429980000    -2.555055380000     0.046076810000    12.000000000000
         C            4.017714680000    -4.384104900000    -0.887618630000    12.000000000000
      Gh(N)         -24.673901840000    19.534838750000   -12.605976400000    14.003074004430
      Gh(N)         -24.885006170000    21.506615500000   -10.993671880000    14.003074004430
      Gh(H)         -27.285002380000    18.141583060000   -14.765955060000     1.007825032230
      Gh(H)         -30.263368730000    21.412415520000   -13.227757410000     1.007825032230
      Gh(H)         -27.594539510000    23.964378480000    -9.706464880000     1.007825032230
      Gh(H)         -23.601046110000    21.793259360000    -9.892308030000     1.007825032230
      Gh(C)         -27.174188080000    22.572787940000   -11.030533330000    12.000000000000
      Gh(C)         -28.571283960000    21.232817090000   -12.753038230000    12.000000000000
      Gh(C)         -26.935999250000    19.403767570000   -13.686733680000    12.000000000000

  Running in c1 symmetry.

  Rotational constants: A =      0.11133  B =      0.00067  C =      0.00067 [cm^-1]
  Rotational constants: A =   3337.55313  B =     20.17821  C =     20.12221 [MHz]
  Nuclear repulsion =  166.624056450327203

  Charge       = 0
  Multiplicity = 1
  Electrons    = 36
  Nalpha       = 18
  Nbeta        = 18

  ==> Algorithm <==

  SCF Algorithm Type is DF.
  DIIS enabled.
  MOM disabled.
  Fractional occupation disabled.
  Guess Type is SAD.
  Energy threshold   = 1.00e-10
  Density threshold  = 1.00e-10
  Integral threshold = 1.00e-12

  ==> Primary Basis <==

  Basis Set: AUG-CC-PVDZ
    Blend: AUG-CC-PVDZ
    Number of shells: 130
    Number of basis functions: 302
    Number of Cartesian functions: 322
    Spherical Harmonics?: true
    Max angular momentum: 2

   => Loading Basis Set <=

    Name: (AUG-CC-PVDZ AUX)
    Role: JKFIT
    Keyword: DF_BASIS_SCF
    atoms 1-2, 10-11 entry N          line   212 file /theoryfs2/ds/csargent/miniconda3/envs/cle/share/psi4/basis/aug-cc-pvdz-jkfit.gbs 
    atoms 3-6, 12-15 entry H          line    70 file /theoryfs2/ds/csargent/miniconda3/envs/cle/share/psi4/basis/aug-cc-pvdz-jkfit.gbs 
    atoms 7-9, 16-18 entry C          line   154 file /theoryfs2/ds/csargent/miniconda3/envs/cle/share/psi4/basis/aug-cc-pvdz-jkfit.gbs 

  ==> Integral Setup <==

  ==> DiskDFJK: Density-Fitted J/K Matrices <==

    J tasked:                  Yes
    K tasked:                  Yes
    wK tasked:                  No
    OpenMP threads:              6
    Integrals threads:           6
    Memory [MiB]:             5006
    Algorithm:                Core
    Integral Cache:           LOAD
    Schwarz Cutoff:          1E-12
    Fitting Condition:       1E-10

   => Auxiliary Basis Set <=

  Basis Set: (AUG-CC-PVDZ AUX)
    Blend: AUG-CC-PVDZ-JKFIT
    Number of shells: 376
    Number of basis functions: 1116
    Number of Cartesian functions: 1290
    Spherical Harmonics?: true
    Max angular momentum: 3

  Minimum eigenvalue in the overlap matrix is 3.0333777289E-05.
  Reciprocal condition number of the overlap matrix is 2.4874860374E-06.
    Using symmetric orthogonalization.

  ==> Pre-Iterations <==

  SCF Guess: Superposition of Atomic Densities via on-the-fly atomic UHF (no occupation information).

   -------------------------
    Irrep   Nso     Nmo    
   -------------------------
     A        302     302 
   -------------------------
    Total     302     302
   -------------------------

  ==> Iterations <==

                           Total Energy        Delta E     RMS |[F,P]|

   @DF-RHF iter SAD:  -224.72194801215670   -2.24722e+02   0.00000e+00 
   @DF-RHF iter   1:  -224.63549169913955    8.64563e-02   1.50472e-03 DIIS
   @DF-RHF iter   2:  -224.73984613168631   -1.04354e-01   6.88462e-04 DIIS
   @DF-RHF iter   3:  -224.76075487057906   -2.09087e-02   1.48626e-04 DIIS
   @DF-RHF iter   4:  -224.76213931434597   -1.38444e-03   6.05310e-05 DIIS
   @DF-RHF iter   5:  -224.76231766910269   -1.78355e-04   1.19893e-05 DIIS
   @DF-RHF iter   6:  -224.76233462657646   -1.69575e-05   4.96772e-06 DIIS
   @DF-RHF iter   7:  -224.76233858261364   -3.95604e-06   2.18806e-06 DIIS
   @DF-RHF iter   8:  -224.76233934335644   -7.60743e-07   1.01700e-06 DIIS
   @DF-RHF iter   9:  -224.76233951099780   -1.67641e-07   2.83302e-07 DIIS
   @DF-RHF iter  10:  -224.76233951981897   -8.82116e-09   8.55547e-08 DIIS
   @DF-RHF iter  11:  -224.76233952050850   -6.89539e-10   1.99714e-08 DIIS
   @DF-RHF iter  12:  -224.76233952055492   -4.64127e-11   5.81092e-09 DIIS
   @DF-RHF iter  13:  -224.76233952055856   -3.63798e-12   2.83097e-09 DIIS
   @DF-RHF iter  14:  -224.76233952055966   -1.10845e-12   9.75191e-10 DIIS
   @DF-RHF iter  15:  -224.76233952056026   -5.96856e-13   4.15548e-10 DIIS
   @DF-RHF iter  16:  -224.76233952055972    5.40012e-13   1.25998e-10 DIIS
   @DF-RHF iter  17:  -224.76233952056000   -2.84217e-13   4.47778e-11 DIIS
  Energy and wave function converged.


  ==> Post-Iterations <==

    Orbital Energies [Eh]
    ---------------------

    Doubly Occupied:                                                      

       1A    -15.636223     2A    -15.592313     3A    -11.279894  
       4A    -11.237784     5A    -11.209891     6A     -1.386922  
       7A     -1.121901     8A     -1.066898     9A     -0.872768  
      10A     -0.837061    11A     -0.757292    12A     -0.645746  
      13A     -0.620834    14A     -0.609140    15A     -0.583920  
      16A     -0.461404    17A     -0.370721    18A     -0.346048  

    Virtual:                                                              

      19A      0.022456    20A      0.030764    21A      0.039806  
      22A      0.042368    23A      0.043915    24A      0.049159  
      25A      0.063520    26A      0.065638    27A      0.083757  
      28A      0.090521    29A      0.098738    30A      0.100998  
      31A      0.104029    32A      0.117179    33A      0.118145  
      34A      0.125631    35A      0.126270    36A      0.128044  
      37A      0.133069    38A      0.133159    39A      0.133914  
      40A      0.138403    41A      0.141490    42A      0.156889  
      43A      0.158356    44A      0.164592    45A      0.165735  
      46A      0.171075    47A      0.178408    48A      0.178969  
      49A      0.195261    50A      0.196042    51A      0.201259  
      52A      0.204793    53A      0.206162    54A      0.222708  
      55A      0.224924    56A      0.228046    57A      0.235342  
      58A      0.240236    59A      0.243626    60A      0.244965  
      61A      0.263856    62A      0.270768    63A      0.271127  
      64A      0.279080    65A      0.301010    66A      0.321714  
      67A      0.325148    68A      0.339878    69A      0.352358  
      70A      0.355357    71A      0.366327    72A      0.372703  
      73A      0.374907    74A      0.383527    75A      0.396061  
      76A      0.402741    77A      0.414998    78A      0.427262  
      79A      0.431858    80A      0.432132    81A      0.440992  
      82A      0.442137    83A      0.443385    84A      0.453393  
      85A      0.455783    86A      0.457222    87A      0.459816  
      88A      0.461671    89A      0.478655    90A      0.498543  
      91A      0.508690    92A      0.509512    93A      0.519198  
      94A      0.521917    95A      0.532912    96A      0.537853  
      97A      0.541560    98A      0.559117    99A      0.568588  
     100A      0.571648   101A      0.574432   102A      0.586318  
     103A      0.590538   104A      0.594980   105A      0.602413  
     106A      0.613182   107A      0.620953   108A      0.621043  
     109A      0.633329   110A      0.646110   111A      0.655295  
     112A      0.676162   113A      0.690643   114A      0.698041  
     115A      0.700391   116A      0.707615   117A      0.719250  
     118A      0.721667   119A      0.725115   120A      0.735476  
     121A      0.745184   122A      0.747709   123A      0.758592  
     124A      0.773318   125A      0.781481   126A      0.789502  
     127A      0.797912   128A      0.814263   129A      0.820743  
     130A      0.828504   131A      0.838230   132A      0.848394  
     133A      0.851762   134A      0.854910   135A      0.870842  
     136A      0.880890   137A      0.881395   138A      0.888767  
     139A      0.895500   140A      0.906950   141A      0.915961  
     142A      0.924815   143A      0.942582   144A      0.951911  
     145A      0.978222   146A      0.984850   147A      0.997005  
     148A      1.011149   149A      1.024028   150A      1.030073  
     151A      1.046606   152A      1.051484   153A      1.066503  
     154A      1.070981   155A      1.080858   156A      1.100852  
     157A      1.108032   158A      1.128058   159A      1.134196  
     160A      1.150235   161A      1.158651   162A      1.166162  
     163A      1.175168   164A      1.184854   165A      1.220548  
     166A      1.221573   167A      1.236903   168A      1.267870  
     169A      1.269556   170A      1.293600   171A      1.303342  
     172A      1.311399   173A      1.315032   174A      1.340580  
     175A      1.365807   176A      1.381731   177A      1.401043  
     178A      1.434876   179A      1.444603   180A      1.474691  
     181A      1.493111   182A      1.506911   183A      1.512027  
     184A      1.526129   185A      1.560989   186A      1.590882  
     187A      1.608669   188A      1.637437   189A      1.669472  
     190A      1.676607   191A      1.688786   192A      1.703634  
     193A      1.723950   194A      1.749215   195A      1.764373  
     196A      1.805048   197A      1.875632   198A      1.932390  
     199A      1.943558   200A      1.988067   201A      2.021445  
     202A      2.041000   203A      2.057611   204A      2.088839  
     205A      2.108992   206A      2.134766   207A      2.144687  
     208A      2.168054   209A      2.190005   210A      2.200827  
     211A      2.216565   212A      2.230457   213A      2.233791  
     214A      2.261793   215A      2.275825   216A      2.277689  
     217A      2.289191   218A      2.307640   219A      2.335627  
     220A      2.360716   221A      2.380513   222A      2.389130  
     223A      2.393822   224A      2.394458   225A      2.435246  
     226A      2.443803   227A      2.464967   228A      2.478254  
     229A      2.499837   230A      2.513502   231A      2.531798  
     232A      2.548747   233A      2.570232   234A      2.584716  
     235A      2.631259   236A      2.642961   237A      2.667435  
     238A      2.702925   239A      2.718810   240A      2.733029  
     241A      2.826838   242A      2.827840   243A      2.834751  
     244A      2.869701   245A      2.889956   246A      2.901587  
     247A      2.918598   248A      2.945072   249A      2.999157  
     250A      3.027989   251A      3.055324   252A      3.089751  
     253A      3.092358   254A      3.122730   255A      3.139962  
     256A      3.181894   257A      3.188930   258A      3.222008  
     259A      3.254055   260A      3.289111   261A      3.297865  
     262A      3.355677   263A      3.380235   264A      3.395515  
     265A      3.423392   266A      3.448224   267A      3.487088  
     268A      3.497442   269A      3.520727   270A      3.633481  
     271A      3.666866   272A      3.686563   273A      3.735544  
     274A      3.769992   275A      3.851058   276A      3.889327  
     277A      3.964328   278A      4.035419   279A      4.094672  
     280A      4.209428   281A      4.244005   282A      4.448356  
     283A      4.463235   284A      4.658337   285A      4.707953  
     286A      4.749867   287A      4.810704   288A      4.994795  
     289A      5.076724   290A      5.241378   291A      5.531171  
     292A      5.668868   293A      5.826771   294A      6.106623  
     295A      6.318276   296A      6.708325   297A      6.967787  
     298A     18.111135   299A     18.647804   300A     19.373536  
     301A     25.245470   302A     25.704861  

    Final Occupation by Irrep:
              A 
    DOCC [    18 ]

  @DF-RHF Final Energy:  -224.76233952056000

   => Energetics <=

    Nuclear Repulsion Energy =            166.6240564503272026
    One-Electron Energy =                -633.4992733876522379
    Two-Electron Energy =                 242.1128774167650306
    Total Energy =                       -224.7623395205600048

Computation Completed


Properties will be evaluated at   0.000000,   0.000000,   0.000000 [a0]

Properties computed using the SCF density matrix

  Nuclear Dipole Moment: [e a0]
     X:   162.5886      Y:  -104.5054      Z:    23.1563

  Electronic Dipole Moment: [e a0]
     X:  -162.9913      Y:   105.1370      Z:   -22.5767

  Dipole Moment: [e a0]
     X:    -0.4027      Y:     0.6317      Z:     0.5796     Total:     0.9472

  Dipole Moment: [D]
     X:    -1.0235      Y:     1.6055      Z:     1.4733     Total:     2.4075


*** tstop() called on ds1 at Mon Oct  4 13:47:52 2021
Module time:
	user time   =      15.89 seconds =       0.26 minutes
	system time =       0.36 seconds =       0.01 minutes
	total time  =          3 seconds =       0.05 minutes
Total time:
	user time   =      38.25 seconds =       0.64 minutes
	system time =       0.94 seconds =       0.02 minutes
	total time  =          8 seconds =       0.13 minutes

  //>>>>>>>>>>>>>>>>>>>>>>>>>>>>>>>>>>>//
  //            Monomer B HF           //
  //<<<<<<<<<<<<<<<<<<<<<<<<<<<<<<<<<<<//


*** tstart() called on ds1
*** at Mon Oct  4 13:47:52 2021

   => Loading Basis Set <=

    Name: AUG-CC-PVDZ
    Role: ORBITAL
    Keyword: BASIS
    atoms 1-2, 10-11 entry N          line   218 file /theoryfs2/ds/csargent/miniconda3/envs/cle/share/psi4/basis/aug-cc-pvdz.gbs 
    atoms 3-6, 12-15 entry H          line    40 file /theoryfs2/ds/csargent/miniconda3/envs/cle/share/psi4/basis/aug-cc-pvdz.gbs 
    atoms 7-9, 16-18 entry C          line   182 file /theoryfs2/ds/csargent/miniconda3/envs/cle/share/psi4/basis/aug-cc-pvdz.gbs 


         ---------------------------------------------------------
                                   SCF
               by Justin Turney, Rob Parrish, Andy Simmonett
                          and Daniel G. A. Smith
                              RHF Reference
                        6 Threads,   6675 MiB Core
         ---------------------------------------------------------

  ==> Geometry <==

    Molecular point group: c1
    Full point group: C1

    Geometry (in Bohr), charge = 0, multiplicity = 1:

       Center              X                  Y                   Z               Mass       
    ------------   -----------------  -----------------  -----------------  -----------------
      Gh(N)           6.279812100000    -4.253033720000     0.193138650000    14.003074004430
      Gh(N)           6.068707770000    -2.281256970000     1.805443170000    14.003074004430
      Gh(H)           3.668711560000    -5.646289410000    -1.966840010000     1.007825032230
      Gh(H)           0.690345210000    -2.375456940000    -0.428642360000     1.007825032230
      Gh(H)           3.359174420000     0.176506010000     3.092650170000     1.007825032230
      Gh(H)           7.352667820000    -1.994613110000     2.906807020000     1.007825032230
      Gh(C)           3.779525860000    -1.215084530000     1.768581720000    12.000000000000
      Gh(C)           2.382429980000    -2.555055380000     0.046076810000    12.000000000000
      Gh(C)           4.017714680000    -4.384104900000    -0.887618630000    12.000000000000
         N          -24.673901840000    19.534838750000   -12.605976400000    14.003074004430
         N          -24.885006170000    21.506615500000   -10.993671880000    14.003074004430
         H          -27.285002380000    18.141583060000   -14.765955060000     1.007825032230
         H          -30.263368730000    21.412415520000   -13.227757410000     1.007825032230
         H          -27.594539510000    23.964378480000    -9.706464880000     1.007825032230
         H          -23.601046110000    21.793259360000    -9.892308030000     1.007825032230
         C          -27.174188080000    22.572787940000   -11.030533330000    12.000000000000
         C          -28.571283960000    21.232817090000   -12.753038230000    12.000000000000
         C          -26.935999250000    19.403767570000   -13.686733680000    12.000000000000

  Running in c1 symmetry.

  Rotational constants: A =      0.11133  B =      0.00067  C =      0.00067 [cm^-1]
  Rotational constants: A =   3337.55313  B =     20.17821  C =     20.12221 [MHz]
  Nuclear repulsion =  166.624056492566524

  Charge       = 0
  Multiplicity = 1
  Electrons    = 36
  Nalpha       = 18
  Nbeta        = 18

  ==> Algorithm <==

  SCF Algorithm Type is DF.
  DIIS enabled.
  MOM disabled.
  Fractional occupation disabled.
  Guess Type is SAD.
  Energy threshold   = 1.00e-10
  Density threshold  = 1.00e-10
  Integral threshold = 1.00e-12

  ==> Primary Basis <==

  Basis Set: AUG-CC-PVDZ
    Blend: AUG-CC-PVDZ
    Number of shells: 130
    Number of basis functions: 302
    Number of Cartesian functions: 322
    Spherical Harmonics?: true
    Max angular momentum: 2

   => Loading Basis Set <=

    Name: (AUG-CC-PVDZ AUX)
    Role: JKFIT
    Keyword: DF_BASIS_SCF
    atoms 1-2, 10-11 entry N          line   212 file /theoryfs2/ds/csargent/miniconda3/envs/cle/share/psi4/basis/aug-cc-pvdz-jkfit.gbs 
    atoms 3-6, 12-15 entry H          line    70 file /theoryfs2/ds/csargent/miniconda3/envs/cle/share/psi4/basis/aug-cc-pvdz-jkfit.gbs 
    atoms 7-9, 16-18 entry C          line   154 file /theoryfs2/ds/csargent/miniconda3/envs/cle/share/psi4/basis/aug-cc-pvdz-jkfit.gbs 

  ==> Integral Setup <==

  ==> DiskDFJK: Density-Fitted J/K Matrices <==

    J tasked:                  Yes
    K tasked:                  Yes
    wK tasked:                  No
    OpenMP threads:              6
    Integrals threads:           6
    Memory [MiB]:             5006
    Algorithm:                Core
    Integral Cache:           LOAD
    Schwarz Cutoff:          1E-12
    Fitting Condition:       1E-10

   => Auxiliary Basis Set <=

  Basis Set: (AUG-CC-PVDZ AUX)
    Blend: AUG-CC-PVDZ-JKFIT
    Number of shells: 376
    Number of basis functions: 1116
    Number of Cartesian functions: 1290
    Spherical Harmonics?: true
    Max angular momentum: 3

  Minimum eigenvalue in the overlap matrix is 3.0333777289E-05.
  Reciprocal condition number of the overlap matrix is 2.4874860374E-06.
    Using symmetric orthogonalization.

  ==> Pre-Iterations <==

  SCF Guess: Superposition of Atomic Densities via on-the-fly atomic UHF (no occupation information).

   -------------------------
    Irrep   Nso     Nmo    
   -------------------------
     A        302     302 
   -------------------------
    Total     302     302
   -------------------------

  ==> Iterations <==

                           Total Energy        Delta E     RMS |[F,P]|

   @DF-RHF iter SAD:  -224.72194801791883   -2.24722e+02   0.00000e+00 
   @DF-RHF iter   1:  -224.63549170140578    8.64563e-02   1.50472e-03 DIIS
   @DF-RHF iter   2:  -224.73984613429528   -1.04354e-01   6.88462e-04 DIIS
   @DF-RHF iter   3:  -224.76075487316072   -2.09087e-02   1.48626e-04 DIIS
   @DF-RHF iter   4:  -224.76213931693960   -1.38444e-03   6.05310e-05 DIIS
   @DF-RHF iter   5:  -224.76231767169921   -1.78355e-04   1.19893e-05 DIIS
   @DF-RHF iter   6:  -224.76233462917398   -1.69575e-05   4.96772e-06 DIIS
   @DF-RHF iter   7:  -224.76233858521150   -3.95604e-06   2.18806e-06 DIIS
   @DF-RHF iter   8:  -224.76233934595376   -7.60742e-07   1.01700e-06 DIIS
   @DF-RHF iter   9:  -224.76233951359580   -1.67642e-07   2.83302e-07 DIIS
   @DF-RHF iter  10:  -224.76233952241643   -8.82062e-09   8.55547e-08 DIIS
   @DF-RHF iter  11:  -224.76233952310611   -6.89681e-10   1.99714e-08 DIIS
   @DF-RHF iter  12:  -224.76233952315232   -4.62137e-11   5.81092e-09 DIIS
   @DF-RHF iter  13:  -224.76233952315647   -4.14957e-12   2.83097e-09 DIIS
   @DF-RHF iter  14:  -224.76233952315704   -5.68434e-13   9.75191e-10 DIIS
   @DF-RHF iter  15:  -224.76233952315744   -3.97904e-13   4.15548e-10 DIIS
   @DF-RHF iter  16:  -224.76233952315783   -3.97904e-13   1.25998e-10 DIIS
   @DF-RHF iter  17:  -224.76233952315758    2.55795e-13   4.47780e-11 DIIS
  Energy and wave function converged.


  ==> Post-Iterations <==

    Orbital Energies [Eh]
    ---------------------

    Doubly Occupied:                                                      

       1A    -15.636223     2A    -15.592313     3A    -11.279894  
       4A    -11.237784     5A    -11.209891     6A     -1.386922  
       7A     -1.121901     8A     -1.066898     9A     -0.872768  
      10A     -0.837061    11A     -0.757292    12A     -0.645746  
      13A     -0.620834    14A     -0.609140    15A     -0.583920  
      16A     -0.461404    17A     -0.370721    18A     -0.346048  

    Virtual:                                                              

      19A      0.023044    20A      0.030764    21A      0.040365  
      22A      0.042368    23A      0.044540    24A      0.049159  
      25A      0.063520    26A      0.066234    27A      0.084338  
      28A      0.091107    29A      0.099313    30A      0.100998  
      31A      0.104029    32A      0.117179    33A      0.118730  
      34A      0.126225    35A      0.126270    36A      0.128631  
      37A      0.133069    38A      0.133750    39A      0.134519  
      40A      0.138403    41A      0.141490    42A      0.156889  
      43A      0.158964    44A      0.164592    45A      0.166325  
      46A      0.171075    47A      0.178408    48A      0.179567  
      49A      0.195836    50A      0.196042    51A      0.201821  
      52A      0.204793    53A      0.206162    54A      0.223281  
      55A      0.225498    56A      0.228633    57A      0.235934  
      58A      0.240236    59A      0.243626    60A      0.244965  
      61A      0.264446    62A      0.271127    63A      0.271344  
      64A      0.279080    65A      0.301010    66A      0.322295  
      67A      0.325148    68A      0.340459    69A      0.352358  
      70A      0.355357    71A      0.366901    72A      0.373298  
      73A      0.374907    74A      0.384112    75A      0.396061  
      76A      0.402741    77A      0.414998    78A      0.427858  
      79A      0.432132    80A      0.432439    81A      0.441595  
      82A      0.442738    83A      0.443385    84A      0.453393  
      85A      0.456366    86A      0.457810    87A      0.459816  
      88A      0.462254    89A      0.478655    90A      0.498543  
      91A      0.508690    92A      0.510088    93A      0.519777  
      94A      0.521917    95A      0.533488    96A      0.538445  
      97A      0.541560    98A      0.559716    99A      0.569163  
     100A      0.572239   101A      0.574432   102A      0.586318  
     103A      0.590538   104A      0.595562   105A      0.602413  
     106A      0.613784   107A      0.620953   108A      0.621628  
     109A      0.633915   110A      0.646110   111A      0.655295  
     112A      0.676162   113A      0.691218   114A      0.698041  
     115A      0.700391   116A      0.708193   117A      0.719845  
     118A      0.721667   119A      0.725115   120A      0.736067  
     121A      0.745777   122A      0.747709   123A      0.758592  
     124A      0.773318   125A      0.781481   126A      0.790089  
     127A      0.798489   128A      0.814851   129A      0.821337  
     130A      0.828504   131A      0.838230   132A      0.848394  
     133A      0.852357   134A      0.855494   135A      0.871436  
     136A      0.881395   137A      0.881482   138A      0.888767  
     139A      0.896085   140A      0.906950   141A      0.916544  
     142A      0.924815   143A      0.942582   144A      0.952496  
     145A      0.978222   146A      0.984850   147A      0.997590  
     148A      1.011149   149A      1.024615   150A      1.030653  
     151A      1.046606   152A      1.052063   153A      1.066503  
     154A      1.071575   155A      1.081456   156A      1.100852  
     157A      1.108615   158A      1.128058   159A      1.134196  
     160A      1.150235   161A      1.159232   162A      1.166748  
     163A      1.175168   164A      1.185444   165A      1.220548  
     166A      1.222149   167A      1.237484   168A      1.268453  
     169A      1.269556   170A      1.294178   171A      1.303342  
     172A      1.311399   173A      1.315617   174A      1.341161  
     175A      1.365807   176A      1.382317   177A      1.401043  
     178A      1.435454   179A      1.445183   180A      1.474691  
     181A      1.493691   182A      1.507488   183A      1.512027  
     184A      1.526129   185A      1.560989   186A      1.590882  
     187A      1.608669   188A      1.637437   189A      1.669472  
     190A      1.677184   191A      1.689360   192A      1.703634  
     193A      1.723950   194A      1.749215   195A      1.764373  
     196A      1.805048   197A      1.875632   198A      1.932390  
     199A      1.943558   200A      1.988067   201A      2.021445  
     202A      2.041596   203A      2.057611   204A      2.088839  
     205A      2.109576   206A      2.135355   207A      2.144687  
     208A      2.168659   209A      2.190005   210A      2.200827  
     211A      2.217154   212A      2.230457   213A      2.234387  
     214A      2.262383   215A      2.275825   216A      2.278281  
     217A      2.289782   218A      2.307640   219A      2.336210  
     220A      2.360716   221A      2.381103   222A      2.389130  
     223A      2.393822   224A      2.395048   225A      2.435246  
     226A      2.444393   227A      2.464967   228A      2.478845  
     229A      2.500435   230A      2.514079   231A      2.531798  
     232A      2.549344   233A      2.570232   234A      2.584716  
     235A      2.631847   236A      2.642961   237A      2.668019  
     238A      2.703507   239A      2.719395   240A      2.733029  
     241A      2.826838   242A      2.828428   243A      2.834751  
     244A      2.870281   245A      2.890543   246A      2.901587  
     247A      2.918598   248A      2.945659   249A      2.999157  
     250A      3.028575   251A      3.055324   252A      3.090332  
     253A      3.092358   254A      3.122730   255A      3.140555  
     256A      3.182481   257A      3.188930   258A      3.222008  
     259A      3.254637   260A      3.289693   261A      3.297865  
     262A      3.356256   263A      3.380235   264A      3.396097  
     265A      3.423969   266A      3.448812   267A      3.487672  
     268A      3.498036   269A      3.520727   270A      3.634063  
     271A      3.667449   272A      3.686563   273A      3.736132  
     274A      3.770569   275A      3.851634   276A      3.889327  
     277A      3.964918   278A      4.035995   279A      4.095252  
     280A      4.209428   281A      4.244588   282A      4.448938  
     283A      4.463235   284A      4.658915   285A      4.708532  
     286A      4.750455   287A      4.811285   288A      4.995378  
     289A      5.077304   290A      5.241959   291A      5.531752  
     292A      5.669444   293A      5.827349   294A      6.107204  
     295A      6.318877   296A      6.708916   297A      6.968367  
     298A     18.111730   299A     18.648390   300A     19.374128  
     301A     25.246046   302A     25.705435  

    Final Occupation by Irrep:
              A 
    DOCC [    18 ]

  @DF-RHF Final Energy:  -224.76233952315758

   => Energetics <=

    Nuclear Repulsion Energy =            166.6240564925665240
    One-Electron Energy =                -633.4992734796182958
    Two-Electron Energy =                 242.1128774638941934
    Total Energy =                       -224.7623395231575785

Computation Completed


Properties will be evaluated at   0.000000,   0.000000,   0.000000 [a0]

Properties computed using the SCF density matrix

  Nuclear Dipole Moment: [e a0]
     X:  -951.7451      Y:   751.8581      Z:  -437.6119

  Electronic Dipole Moment: [e a0]
     X:   951.3424      Y:  -751.2264      Z:   438.1915

  Dipole Moment: [e a0]
     X:    -0.4027      Y:     0.6317      Z:     0.5796     Total:     0.9472

  Dipole Moment: [D]
     X:    -1.0235      Y:     1.6055      Z:     1.4733     Total:     2.4075


*** tstop() called on ds1 at Mon Oct  4 13:47:56 2021
Module time:
	user time   =      15.79 seconds =       0.26 minutes
	system time =       0.32 seconds =       0.01 minutes
	total time  =          4 seconds =       0.07 minutes
Total time:
	user time   =      54.26 seconds =       0.90 minutes
	system time =       1.26 seconds =       0.02 minutes
	total time  =         12 seconds =       0.20 minutes
  Constructing Basis Sets for SAPT...

   => Loading Basis Set <=

    Name: (AUG-CC-PVDZ AUX)
    Role: RIFIT
    Keyword: DF_BASIS_SAPT
    atoms 1-2, 10-11 entry N          line   158 file /theoryfs2/ds/csargent/miniconda3/envs/cle/share/psi4/basis/aug-cc-pvdz-ri.gbs 
    atoms 3-6, 12-15 entry H          line    30 file /theoryfs2/ds/csargent/miniconda3/envs/cle/share/psi4/basis/aug-cc-pvdz-ri.gbs 
    atoms 7-9, 16-18 entry C          line   112 file /theoryfs2/ds/csargent/miniconda3/envs/cle/share/psi4/basis/aug-cc-pvdz-ri.gbs 


  //>>>>>>>>>>>>>>>>>>>>>>>>>>>>>>>>>>>//
  //               SAPT0               //
  //<<<<<<<<<<<<<<<<<<<<<<<<<<<<<<<<<<<//


*** tstart() called on ds1
*** at Mon Oct  4 13:47:57 2021

        SAPT0  
    Ed Hohenstein
     6 June 2009

      Orbital Information
  --------------------------
    NSO        =       302
    NMO        =       302
    NRI        =       904
    NOCC A     =        18
    NOCC B     =        18
    FOCC A     =         5
    FOCC B     =         5
    NVIR A     =       284
    NVIR B     =       284

    Elst10,r            =     0.000002989119 [Eh]
    Exch10              =     0.000000000000 [Eh]
    Exch10 (S^2)        =     0.000000000000 [Eh]

    Iter     Energy [mEh]          dE [mEh]         Residual      Time [s]
       1      -0.00001163       0.000011628       0.037685145             0
       2      -0.00001064      -0.000000989       0.009016867             0
       3      -0.00001162       0.000000978       0.003468590             0
       4      -0.00001178       0.000000165       0.000936531             0
       5      -0.00001177      -0.000000016       0.000416923             0
       6      -0.00001175      -0.000000014       0.000135487             0
       7      -0.00001175      -0.000000000       0.000049175             1
       8      -0.00001175       0.000000001       0.000023170             1
       9      -0.00001175       0.000000000       0.000007662             1
      10      -0.00001175      -0.000000000       0.000002360             1
      11      -0.00001175       0.000000000       0.000000835             1

    CHF Iterations converged


    Iter     Energy [mEh]          dE [mEh]         Residual      Time [s]
       1      -0.00000529       0.000005288       0.025609290             0
       2      -0.00000478      -0.000000508       0.005948548             0
       3      -0.00000515       0.000000367       0.002602345             0
       4      -0.00000525       0.000000101       0.000635370             1
       5      -0.00000524      -0.000000010       0.000383486             1
       6      -0.00000523      -0.000000008       0.000120435             1
       7      -0.00000523       0.000000001       0.000051458             1
       8      -0.00000523       0.000000001       0.000020580             1
       9      -0.00000523       0.000000000       0.000006455             1
      10      -0.00000523      -0.000000000       0.000001650             1
      11      -0.00000523       0.000000000       0.000000820             2

    CHF Iterations converged

    Ind20,r (A<-B)      =    -0.000000011754 [Eh]
    Ind20,r (B<-A)      =    -0.000000005232 [Eh]
    Ind20,r             =    -0.000000016985 [Eh]
    Exch-Ind20,r (A<-B) =     0.000000000000 [Eh]
    Exch-Ind20,r (B<-A) =     0.000000000000 [Eh]
    Exch-Ind20,r        =     0.000000000000 [Eh]
    Disp20              =    -0.000000257407 [Eh]
    Disp20 (SS)         =    -0.000000128703 [Eh]
    Disp20 (OS)         =    -0.000000128703 [Eh]
    Exch-Disp20         =     0.000000000000 [Eh]
    Exch-Disp20 (SS)    =     0.000000000000 [Eh]
    Exch-Disp20 (OS)    =     0.000000000000 [Eh]

    SAPT Results 
  --------------------------------------------------------------------------------------------------------
    Electrostatics                  0.00298912 [mEh]       0.00187570 [kcal/mol]       0.00784793 [kJ/mol]
      Elst10,r                      0.00298912 [mEh]       0.00187570 [kcal/mol]       0.00784793 [kJ/mol]

    Exchange                        0.00000000 [mEh]       0.00000000 [kcal/mol]       0.00000000 [kJ/mol]
      Exch10                        0.00000000 [mEh]       0.00000000 [kcal/mol]       0.00000000 [kJ/mol]
      Exch10(S^2)                   0.00000000 [mEh]       0.00000000 [kcal/mol]       0.00000000 [kJ/mol]

    Induction                       0.00004027 [mEh]       0.00002527 [kcal/mol]       0.00010572 [kJ/mol]
      Ind20,r                      -0.00001699 [mEh]      -0.00001066 [kcal/mol]      -0.00004459 [kJ/mol]
      Exch-Ind20,r                  0.00000000 [mEh]       0.00000000 [kcal/mol]       0.00000000 [kJ/mol]
      delta HF,r (2)                0.00005725 [mEh]       0.00003593 [kcal/mol]       0.00015031 [kJ/mol]

    Dispersion                     -0.00025741 [mEh]      -0.00016153 [kcal/mol]      -0.00067582 [kJ/mol]
      Disp20                       -0.00025741 [mEh]      -0.00016153 [kcal/mol]      -0.00067582 [kJ/mol]
      Exch-Disp20                   0.00000000 [mEh]       0.00000000 [kcal/mol]       0.00000000 [kJ/mol]
      Disp20 (SS)                  -0.00012870 [mEh]      -0.00008076 [kcal/mol]      -0.00033791 [kJ/mol]
      Disp20 (OS)                  -0.00012870 [mEh]      -0.00008076 [kcal/mol]      -0.00033791 [kJ/mol]
      Exch-Disp20 (SS)              0.00000000 [mEh]       0.00000000 [kcal/mol]       0.00000000 [kJ/mol]
      Exch-Disp20 (OS)              0.00000000 [mEh]       0.00000000 [kcal/mol]       0.00000000 [kJ/mol]

  Total HF                          0.00302938 [mEh]       0.00190097 [kcal/mol]       0.00795365 [kJ/mol]
  Total SAPT0                       0.00277198 [mEh]       0.00173944 [kcal/mol]       0.00727783 [kJ/mol]

  Special recipe for scaled SAPT0 (see Manual):
    Electrostatics sSAPT0           0.00298912 [mEh]       0.00187570 [kcal/mol]       0.00784793 [kJ/mol]
    Exchange sSAPT0                 0.00000000 [mEh]       0.00000000 [kcal/mol]       0.00000000 [kJ/mol]
    Induction sSAPT0                0.00004027 [mEh]       0.00002527 [kcal/mol]       0.00010572 [kJ/mol]
    Dispersion sSAPT0              -0.00025741 [mEh]      -0.00016153 [kcal/mol]      -0.00067582 [kJ/mol]
  Total sSAPT0                      0.00277198 [mEh]       0.00173944 [kcal/mol]       0.00727783 [kJ/mol]
  --------------------------------------------------------------------------------------------------------

*** tstop() called on ds1 at Mon Oct  4 13:48:06 2021
Module time:
	user time   =      44.10 seconds =       0.73 minutes
	system time =       3.77 seconds =       0.06 minutes
	total time  =          9 seconds =       0.15 minutes
Total time:
	user time   =      99.41 seconds =       1.66 minutes
	system time =       5.07 seconds =       0.08 minutes
	total time  =         22 seconds =       0.37 minutes


Warning! sapt0 does not have an associated derived wavefunction.The returned wavefunction is the dimer SCF wavefunction.


    Psi4 stopped on: Monday, 04 October 2021 01:48PM
    Psi4 wall time for execution: 0:00:21.93

*** Psi4 exiting successfully. Buy a developer a beer!
