
    -----------------------------------------------------------------------
          Psi4: An Open-Source Ab Initio Electronic Structure Package
                               Psi4 1.4rc3 

                         Git: Rev {HEAD} 080dba6 


    D. G. A. Smith, L. A. Burns, A. C. Simmonett, R. M. Parrish,
    M. C. Schieber, R. Galvelis, P. Kraus, H. Kruse, R. Di Remigio,
    A. Alenaizan, A. M. James, S. Lehtola, J. P. Misiewicz, M. Scheurer,
    R. A. Shaw, J. B. Schriber, Y. Xie, Z. L. Glick, D. A. Sirianni,
    J. S. O'Brien, J. M. Waldrop, A. Kumar, E. G. Hohenstein,
    B. P. Pritchard, B. R. Brooks, H. F. Schaefer III, A. Yu. Sokolov,
    K. Patkowski, A. E. DePrince III, U. Bozkaya, R. A. King,
    F. A. Evangelista, J. M. Turney, T. D. Crawford, C. D. Sherrill,
    J. Chem. Phys. 152(18) 184108 (2020). https://doi.org/10.1063/5.0006002

                            Additional Code Authors
    E. T. Seidl, C. L. Janssen, E. F. Valeev, M. L. Leininger,
    J. F. Gonthier, R. M. Richard, H. R. McAlexander, M. Saitow, X. Wang,
    P. Verma, and M. H. Lechner

             Previous Authors, Complete List of Code Contributors,
                       and Citations for Specific Modules
    https://github.com/psi4/psi4/blob/master/codemeta.json
    https://github.com/psi4/psi4/graphs/contributors
    http://psicode.org/psi4manual/master/introduction.html#citing-psifour

    -----------------------------------------------------------------------


    Psi4 started on: Monday, 04 October 2021 01:41PM

    Process ID: 8462
    Host:       ds1
    PSIDATADIR: /theoryfs2/ds/csargent/miniconda3/envs/cle/share/psi4
    Memory:     500.0 MiB
    Threads:    6
    
  ==> Input File <==

--------------------------------------------------------------------------
# PSI4 file produced by CrystaLattE

# Generated from:               pyrazole.xyz
# Psithon input for N-mer:      2mer-0+241
# Number of atoms per monomer:  [9, 9]
# Number of replicas:           2
# COM priority:                 2.755144242817e-05
# Minimum COM separations:      17.521 
# Separation priority:          5.630769432157e-05
# Minimum monomer separations:  13.806 
# Cutoff priority:              2.158193229201e-06
# Nuclear repulsion energy:     372.4217013766646

memory 7 GB

molecule Dimer_0_241 {
  N            6.27981210      -4.25303372       0.19313865 
  N            6.06870777      -2.28125697       1.80544317 
  H            3.66871156      -5.64628941      -1.96684001 
  H            0.69034521      -2.37545694      -0.42864236 
  H            3.35917442       0.17650601       3.09265017 
  H            7.35266782      -1.99461311       2.90680702 
  C            3.77952586      -1.21508453       1.76858172 
  C            2.38242998      -2.55505538       0.04607681 
  C            4.01771468      -4.38410490      -0.88761863 
--
  N           -1.45861638     -19.42731757     -25.74529193 
  N           -1.66972071     -21.39909431     -27.35759645 
  H           -4.06971692     -18.03406187     -23.58531327 
  H           -7.04808328     -21.30489434     -25.12351092 
  H           -4.37925406     -23.85685730     -28.64480345 
  H           -0.38576066     -21.68573818     -28.45896030 
  C           -3.95890263     -22.46526676     -27.32073500 
  C           -5.35599851     -21.12529590     -25.59823010 
  C           -3.72071380     -19.29624639     -24.66453465 
units = au
no_com
no_reorient
}

set {
  e_convergence 10
  d_convergence 10
  scf_type df
  mp2_type df
  cc_type df
  freeze_core true
}

energy('sapt0/aug-cc-pvdz')

--------------------------------------------------------------------------

  Memory set to   6.519 GiB by Python driver.

Scratch directory: /scratch/csargent/psi4.7158.66302/

Scratch directory: /scratch/csargent/psi4.7158.66302/

  //>>>>>>>>>>>>>>>>>>>>>>>>>>>>>>>>>>>//
  //              Dimer HF             //
  //<<<<<<<<<<<<<<<<<<<<<<<<<<<<<<<<<<<//


*** tstart() called on ds1
*** at Mon Oct  4 13:41:28 2021

   => Loading Basis Set <=

    Name: AUG-CC-PVDZ
    Role: ORBITAL
    Keyword: BASIS
    atoms 1-2, 10-11 entry N          line   218 file /theoryfs2/ds/csargent/miniconda3/envs/cle/share/psi4/basis/aug-cc-pvdz.gbs 
    atoms 3-6, 12-15 entry H          line    40 file /theoryfs2/ds/csargent/miniconda3/envs/cle/share/psi4/basis/aug-cc-pvdz.gbs 
    atoms 7-9, 16-18 entry C          line   182 file /theoryfs2/ds/csargent/miniconda3/envs/cle/share/psi4/basis/aug-cc-pvdz.gbs 


         ---------------------------------------------------------
                                   SCF
               by Justin Turney, Rob Parrish, Andy Simmonett
                          and Daniel G. A. Smith
                              RHF Reference
                        6 Threads,   6675 MiB Core
         ---------------------------------------------------------

  ==> Geometry <==

    Molecular point group: c1
    Full point group: C1

    Geometry (in Bohr), charge = 0, multiplicity = 1:

       Center              X                  Y                   Z               Mass       
    ------------   -----------------  -----------------  -----------------  -----------------
         N            6.279812100000    -4.253033720000     0.193138650000    14.003074004430
         N            6.068707770000    -2.281256970000     1.805443170000    14.003074004430
         H            3.668711560000    -5.646289410000    -1.966840010000     1.007825032230
         H            0.690345210000    -2.375456940000    -0.428642360000     1.007825032230
         H            3.359174420000     0.176506010000     3.092650170000     1.007825032230
         H            7.352667820000    -1.994613110000     2.906807020000     1.007825032230
         C            3.779525860000    -1.215084530000     1.768581720000    12.000000000000
         C            2.382429980000    -2.555055380000     0.046076810000    12.000000000000
         C            4.017714680000    -4.384104900000    -0.887618630000    12.000000000000
         N           -1.458616380000   -19.427317570000   -25.745291930000    14.003074004430
         N           -1.669720710000   -21.399094310000   -27.357596450000    14.003074004430
         H           -4.069716920000   -18.034061870000   -23.585313270000     1.007825032230
         H           -7.048083280000   -21.304894340000   -25.123510920000     1.007825032230
         H           -4.379254060000   -23.856857300000   -28.644803450000     1.007825032230
         H           -0.385760660000   -21.685738180000   -28.458960300000     1.007825032230
         C           -3.958902630000   -22.465266760000   -27.320735000000    12.000000000000
         C           -5.355998510000   -21.125295900000   -25.598230100000    12.000000000000
         C           -3.720713800000   -19.296246390000   -24.664534650000    12.000000000000

  Running in c1 symmetry.

  Rotational constants: A =      0.02565  B =      0.00078  C =      0.00076 [cm^-1]
  Rotational constants: A =    769.02647  B =     23.39740  C =     22.76624 [MHz]
  Nuclear repulsion =  372.421701282884442

  Charge       = 0
  Multiplicity = 1
  Electrons    = 72
  Nalpha       = 36
  Nbeta        = 36

  ==> Algorithm <==

  SCF Algorithm Type is DF.
  DIIS enabled.
  MOM disabled.
  Fractional occupation disabled.
  Guess Type is SAD.
  Energy threshold   = 1.00e-10
  Density threshold  = 1.00e-10
  Integral threshold = 1.00e-12

  ==> Primary Basis <==

  Basis Set: AUG-CC-PVDZ
    Blend: AUG-CC-PVDZ
    Number of shells: 130
    Number of basis functions: 302
    Number of Cartesian functions: 322
    Spherical Harmonics?: true
    Max angular momentum: 2

   => Loading Basis Set <=

    Name: (AUG-CC-PVDZ AUX)
    Role: JKFIT
    Keyword: DF_BASIS_SCF
    atoms 1-2, 10-11 entry N          line   212 file /theoryfs2/ds/csargent/miniconda3/envs/cle/share/psi4/basis/aug-cc-pvdz-jkfit.gbs 
    atoms 3-6, 12-15 entry H          line    70 file /theoryfs2/ds/csargent/miniconda3/envs/cle/share/psi4/basis/aug-cc-pvdz-jkfit.gbs 
    atoms 7-9, 16-18 entry C          line   154 file /theoryfs2/ds/csargent/miniconda3/envs/cle/share/psi4/basis/aug-cc-pvdz-jkfit.gbs 

  ==> Integral Setup <==

  ==> DiskDFJK: Density-Fitted J/K Matrices <==

    J tasked:                  Yes
    K tasked:                  Yes
    wK tasked:                  No
    OpenMP threads:              6
    Integrals threads:           6
    Memory [MiB]:             5006
    Algorithm:                Core
    Integral Cache:           SAVE
    Schwarz Cutoff:          1E-12
    Fitting Condition:       1E-10

   => Auxiliary Basis Set <=

  Basis Set: (AUG-CC-PVDZ AUX)
    Blend: AUG-CC-PVDZ-JKFIT
    Number of shells: 376
    Number of basis functions: 1116
    Number of Cartesian functions: 1290
    Spherical Harmonics?: true
    Max angular momentum: 3

  Minimum eigenvalue in the overlap matrix is 3.0332693304E-05.
  Reciprocal condition number of the overlap matrix is 2.4873969094E-06.
    Using symmetric orthogonalization.

  ==> Pre-Iterations <==

  SCF Guess: Superposition of Atomic Densities via on-the-fly atomic UHF (no occupation information).

   -------------------------
    Irrep   Nso     Nmo    
   -------------------------
     A        302     302 
   -------------------------
    Total     302     302
   -------------------------

  ==> Iterations <==

                           Total Energy        Delta E     RMS |[F,P]|

   @DF-RHF iter SAD:  -449.44389602017878   -4.49444e+02   0.00000e+00 
   @DF-RHF iter   1:  -449.27089103276620    1.73005e-01   2.12826e-03 DIIS
   @DF-RHF iter   2:  -449.47960268813836   -2.08712e-01   9.74269e-04 DIIS
   @DF-RHF iter   3:  -449.52147451546580   -4.18718e-02   2.10489e-04 DIIS
   @DF-RHF iter   4:  -449.52424746160057   -2.77295e-03   8.58367e-05 DIIS
   @DF-RHF iter   5:  -449.52460602458729   -3.58563e-04   1.69484e-05 DIIS
   @DF-RHF iter   6:  -449.52463994632666   -3.39217e-05   7.02524e-06 DIIS
   @DF-RHF iter   7:  -449.52464785795553   -7.91163e-06   3.09261e-06 DIIS
   @DF-RHF iter   8:  -449.52464937955870   -1.52160e-06   1.43868e-06 DIIS
   @DF-RHF iter   9:  -449.52464971470511   -3.35146e-07   4.01368e-07 DIIS
   @DF-RHF iter  10:  -449.52464973239108   -1.76860e-08   1.21137e-07 DIIS
   @DF-RHF iter  11:  -449.52464973377403   -1.38294e-09   2.82669e-08 DIIS
   @DF-RHF iter  12:  -449.52464973386662   -9.25979e-11   8.23333e-09 DIIS
   @DF-RHF iter  13:  -449.52464973387532   -8.69704e-12   4.01395e-09 DIIS
   @DF-RHF iter  14:  -449.52464973387697   -1.64846e-12   1.38264e-09 DIIS
   @DF-RHF iter  15:  -449.52464973387748   -5.11591e-13   5.89007e-10 DIIS
   @DF-RHF iter  16:  -449.52464973387760   -1.13687e-13   1.78778e-10 DIIS
   @DF-RHF iter  17:  -449.52464973387737    2.27374e-13   6.35223e-11 DIIS
  Energy and wave function converged.


  ==> Post-Iterations <==

    Orbital Energies [Eh]
    ---------------------

    Doubly Occupied:                                                      

       1A    -15.635763     2A    -15.635477     3A    -15.591843  
       4A    -15.591542     5A    -11.279447     6A    -11.279160  
       7A    -11.237315     8A    -11.236998     9A    -11.209450  
      10A    -11.209143    11A     -1.386458    12A     -1.386169  
      13A     -1.121436    14A     -1.121141    15A     -1.066448  
      16A     -1.066151    17A     -0.872310    18A     -0.872004  
      19A     -0.836605    20A     -0.836294    21A     -0.756846  
      22A     -0.756559    23A     -0.645289    24A     -0.644984  
      25A     -0.620382    26A     -0.620072    27A     -0.608676  
      28A     -0.608390    29A     -0.583471    30A     -0.583170  
      31A     -0.460923    32A     -0.460630    33A     -0.370256  
      34A     -0.369951    35A     -0.345593    36A     -0.345301  

    Virtual:                                                              

      37A      0.031146    38A      0.031335    39A      0.042733  
      40A      0.043199    41A      0.049566    42A      0.049980  
      43A      0.063878    44A      0.064393    45A      0.101415  
      46A      0.101653    47A      0.104516    48A      0.104812  
      49A      0.117645    50A      0.118040    51A      0.126734  
      52A      0.127022    53A      0.133481    54A      0.133776  
      55A      0.138815    56A      0.139173    57A      0.141717  
      58A      0.142439    59A      0.157274    60A      0.157616  
      61A      0.164978    62A      0.165406    63A      0.171539  
      64A      0.171829    65A      0.178635    66A      0.179471  
      67A      0.196484    68A      0.196771    69A      0.205268  
      70A      0.205533    71A      0.206646    72A      0.206926  
      73A      0.240713    74A      0.241022    75A      0.244094  
      76A      0.244372    77A      0.245467    78A      0.245755  
      79A      0.271620    80A      0.271926    81A      0.279526  
      82A      0.279774    83A      0.301459    84A      0.302012  
      85A      0.325600    86A      0.325876    87A      0.352798  
      88A      0.353089    89A      0.355745    90A      0.356190  
      91A      0.375336    92A      0.375630    93A      0.396472  
      94A      0.396803    95A      0.403181    96A      0.403484  
      97A      0.415400    98A      0.415739    99A      0.432562  
     100A      0.432895   101A      0.443849   102A      0.444256  
     103A      0.453864   104A      0.454161   105A      0.460263  
     106A      0.460604   107A      0.479098   108A      0.479363  
     109A      0.499000   110A      0.499328   111A      0.509142  
     112A      0.509473   113A      0.522350   114A      0.522635  
     115A      0.541935   116A      0.542410   117A      0.574882  
     118A      0.575164   119A      0.586765   120A      0.587058  
     121A      0.590970   122A      0.591285   123A      0.602856  
     124A      0.603143   125A      0.621398   126A      0.621713  
     127A      0.646558   128A      0.646872   129A      0.655713  
     130A      0.656055   131A      0.676607   132A      0.676919  
     133A      0.698489   134A      0.698813   135A      0.700840  
     136A      0.701144   137A      0.722120   138A      0.722438  
     139A      0.725550   140A      0.725845   141A      0.748164  
     142A      0.748474   143A      0.759043   144A      0.759369  
     145A      0.773773   146A      0.774080   147A      0.781943  
     148A      0.782222   149A      0.828980   150A      0.829299  
     151A      0.838678   152A      0.838966   153A      0.848822  
     154A      0.849186   155A      0.881844   156A      0.882162  
     157A      0.889206   158A      0.889501   159A      0.907408  
     160A      0.907721   161A      0.925277   162A      0.925564  
     163A      0.943045   164A      0.943343   165A      0.978673  
     166A      0.978994   167A      0.985306   168A      0.985613  
     169A      1.011641   170A      1.011943   171A      1.047075  
     172A      1.047384   173A      1.066950   174A      1.067260  
     175A      1.101312   176A      1.101592   177A      1.128439  
     178A      1.128903   179A      1.134656   180A      1.134948  
     181A      1.150680   182A      1.150983   183A      1.175622  
     184A      1.175937   185A      1.221018   186A      1.221323  
     187A      1.270015   188A      1.270310   189A      1.303811  
     190A      1.304111   191A      1.311865   192A      1.312160  
     193A      1.366274   194A      1.366568   195A      1.401493  
     196A      1.401810   197A      1.475163   198A      1.475444  
     199A      1.512487   200A      1.512772   201A      1.526581  
     202A      1.526893   203A      1.561446   204A      1.561760  
     205A      1.591321   206A      1.591623   207A      1.609121  
     208A      1.609431   209A      1.637877   210A      1.638192  
     211A      1.669892   212A      1.670250   213A      1.704083  
     214A      1.704387   215A      1.724407   216A      1.724707  
     217A      1.749675   218A      1.749987   219A      1.764827  
     220A      1.765124   221A      1.805509   222A      1.805819  
     223A      1.876076   224A      1.876369   225A      1.932848  
     226A      1.933153   227A      1.943998   228A      1.944308  
     229A      1.988523   230A      1.988846   231A      2.021888  
     232A      2.022230   233A      2.058061   234A      2.058368  
     235A      2.089288   236A      2.089578   237A      2.145143  
     238A      2.145447   239A      2.190452   240A      2.190750  
     241A      2.201281   242A      2.201594   243A      2.230913  
     244A      2.231205   245A      2.276278   246A      2.276603  
     247A      2.308092   248A      2.308385   249A      2.361172  
     250A      2.361487   251A      2.389590   252A      2.389888  
     253A      2.394282   254A      2.394549   255A      2.435715  
     256A      2.435999   257A      2.465429   258A      2.465701  
     259A      2.532257   260A      2.532553   261A      2.570691  
     262A      2.570991   263A      2.585177   264A      2.585455  
     265A      2.643418   266A      2.643709   267A      2.733468  
     268A      2.733772   269A      2.827302   270A      2.827607  
     271A      2.835213   272A      2.835515   273A      2.902051  
     274A      2.902343   275A      2.919058   276A      2.919340  
     277A      2.999611   278A      2.999906   279A      3.055771  
     280A      3.056085   281A      3.092829   282A      3.093126  
     283A      3.123188   284A      3.123484   285A      3.189371  
     286A      3.189737   287A      3.222462   288A      3.222765  
     289A      3.298332   290A      3.298641   291A      3.380677  
     292A      3.380975   293A      3.521191   294A      3.521485  
     295A      3.687016   296A      3.687328   297A      3.889792  
     298A      3.890084   299A      4.209841   300A      4.210258  
     301A      4.463683   302A      4.463994  

    Final Occupation by Irrep:
              A 
    DOCC [    36 ]

  @DF-RHF Final Energy:  -449.52464973387737

   => Energetics <=

    Nuclear Repulsion Energy =            372.4217012828844418
    One-Electron Energy =               -1345.3894087211269834
    Two-Electron Energy =                 523.4430577043651738
    Total Energy =                       -449.5246497338773679

Computation Completed


Properties will be evaluated at   0.000000,   0.000000,   0.000000 [a0]

Properties computed using the SCF density matrix

  Nuclear Dipole Moment: [e a0]
     X:    46.5937      Y:  -852.4926      Z:  -919.8775

  Electronic Dipole Moment: [e a0]
     X:   -47.3978      Y:   852.4919      Z:   919.8763

  Dipole Moment: [e a0]
     X:    -0.8041      Y:    -0.0008      Z:    -0.0012     Total:     0.8041

  Dipole Moment: [D]
     X:    -2.0438      Y:    -0.0020      Z:    -0.0031     Total:     2.0438


*** tstop() called on ds1 at Mon Oct  4 13:41:32 2021
Module time:
	user time   =      22.55 seconds =       0.38 minutes
	system time =       0.56 seconds =       0.01 minutes
	total time  =          4 seconds =       0.07 minutes
Total time:
	user time   =      22.55 seconds =       0.38 minutes
	system time =       0.56 seconds =       0.01 minutes
	total time  =          4 seconds =       0.07 minutes

  //>>>>>>>>>>>>>>>>>>>>>>>>>>>>>>>>>>>//
  //            Monomer A HF           //
  //<<<<<<<<<<<<<<<<<<<<<<<<<<<<<<<<<<<//


*** tstart() called on ds1
*** at Mon Oct  4 13:41:32 2021

   => Loading Basis Set <=

    Name: AUG-CC-PVDZ
    Role: ORBITAL
    Keyword: BASIS
    atoms 1-2, 10-11 entry N          line   218 file /theoryfs2/ds/csargent/miniconda3/envs/cle/share/psi4/basis/aug-cc-pvdz.gbs 
    atoms 3-6, 12-15 entry H          line    40 file /theoryfs2/ds/csargent/miniconda3/envs/cle/share/psi4/basis/aug-cc-pvdz.gbs 
    atoms 7-9, 16-18 entry C          line   182 file /theoryfs2/ds/csargent/miniconda3/envs/cle/share/psi4/basis/aug-cc-pvdz.gbs 


         ---------------------------------------------------------
                                   SCF
               by Justin Turney, Rob Parrish, Andy Simmonett
                          and Daniel G. A. Smith
                              RHF Reference
                        6 Threads,   6675 MiB Core
         ---------------------------------------------------------

  ==> Geometry <==

    Molecular point group: c1
    Full point group: C1

    Geometry (in Bohr), charge = 0, multiplicity = 1:

       Center              X                  Y                   Z               Mass       
    ------------   -----------------  -----------------  -----------------  -----------------
         N            6.279812100000    -4.253033720000     0.193138650000    14.003074004430
         N            6.068707770000    -2.281256970000     1.805443170000    14.003074004430
         H            3.668711560000    -5.646289410000    -1.966840010000     1.007825032230
         H            0.690345210000    -2.375456940000    -0.428642360000     1.007825032230
         H            3.359174420000     0.176506010000     3.092650170000     1.007825032230
         H            7.352667820000    -1.994613110000     2.906807020000     1.007825032230
         C            3.779525860000    -1.215084530000     1.768581720000    12.000000000000
         C            2.382429980000    -2.555055380000     0.046076810000    12.000000000000
         C            4.017714680000    -4.384104900000    -0.887618630000    12.000000000000
      Gh(N)          -1.458616380000   -19.427317570000   -25.745291930000    14.003074004430
      Gh(N)          -1.669720710000   -21.399094310000   -27.357596450000    14.003074004430
      Gh(H)          -4.069716920000   -18.034061870000   -23.585313270000     1.007825032230
      Gh(H)          -7.048083280000   -21.304894340000   -25.123510920000     1.007825032230
      Gh(H)          -4.379254060000   -23.856857300000   -28.644803450000     1.007825032230
      Gh(H)          -0.385760660000   -21.685738180000   -28.458960300000     1.007825032230
      Gh(C)          -3.958902630000   -22.465266760000   -27.320735000000    12.000000000000
      Gh(C)          -5.355998510000   -21.125295900000   -25.598230100000    12.000000000000
      Gh(C)          -3.720713800000   -19.296246390000   -24.664534650000    12.000000000000

  Running in c1 symmetry.

  Rotational constants: A =      0.02565  B =      0.00078  C =      0.00076 [cm^-1]
  Rotational constants: A =    769.02647  B =     23.39740  C =     22.76624 [MHz]
  Nuclear repulsion =  166.624056450327203

  Charge       = 0
  Multiplicity = 1
  Electrons    = 36
  Nalpha       = 18
  Nbeta        = 18

  ==> Algorithm <==

  SCF Algorithm Type is DF.
  DIIS enabled.
  MOM disabled.
  Fractional occupation disabled.
  Guess Type is SAD.
  Energy threshold   = 1.00e-10
  Density threshold  = 1.00e-10
  Integral threshold = 1.00e-12

  ==> Primary Basis <==

  Basis Set: AUG-CC-PVDZ
    Blend: AUG-CC-PVDZ
    Number of shells: 130
    Number of basis functions: 302
    Number of Cartesian functions: 322
    Spherical Harmonics?: true
    Max angular momentum: 2

   => Loading Basis Set <=

    Name: (AUG-CC-PVDZ AUX)
    Role: JKFIT
    Keyword: DF_BASIS_SCF
    atoms 1-2, 10-11 entry N          line   212 file /theoryfs2/ds/csargent/miniconda3/envs/cle/share/psi4/basis/aug-cc-pvdz-jkfit.gbs 
    atoms 3-6, 12-15 entry H          line    70 file /theoryfs2/ds/csargent/miniconda3/envs/cle/share/psi4/basis/aug-cc-pvdz-jkfit.gbs 
    atoms 7-9, 16-18 entry C          line   154 file /theoryfs2/ds/csargent/miniconda3/envs/cle/share/psi4/basis/aug-cc-pvdz-jkfit.gbs 

  ==> Integral Setup <==

  ==> DiskDFJK: Density-Fitted J/K Matrices <==

    J tasked:                  Yes
    K tasked:                  Yes
    wK tasked:                  No
    OpenMP threads:              6
    Integrals threads:           6
    Memory [MiB]:             5006
    Algorithm:                Core
    Integral Cache:           LOAD
    Schwarz Cutoff:          1E-12
    Fitting Condition:       1E-10

   => Auxiliary Basis Set <=

  Basis Set: (AUG-CC-PVDZ AUX)
    Blend: AUG-CC-PVDZ-JKFIT
    Number of shells: 376
    Number of basis functions: 1116
    Number of Cartesian functions: 1290
    Spherical Harmonics?: true
    Max angular momentum: 3

  Minimum eigenvalue in the overlap matrix is 3.0332693304E-05.
  Reciprocal condition number of the overlap matrix is 2.4873969094E-06.
    Using symmetric orthogonalization.

  ==> Pre-Iterations <==

  SCF Guess: Superposition of Atomic Densities via on-the-fly atomic UHF (no occupation information).

   -------------------------
    Irrep   Nso     Nmo    
   -------------------------
     A        302     302 
   -------------------------
    Total     302     302
   -------------------------

  ==> Iterations <==

                           Total Energy        Delta E     RMS |[F,P]|

   @DF-RHF iter SAD:  -224.72194801379993   -2.24722e+02   0.00000e+00 
   @DF-RHF iter   1:  -224.63549170026610    8.64563e-02   1.50472e-03 DIIS
   @DF-RHF iter   2:  -224.73984613334039   -1.04354e-01   6.88462e-04 DIIS
   @DF-RHF iter   3:  -224.76075487219418   -2.09087e-02   1.48626e-04 DIIS
   @DF-RHF iter   4:  -224.76213931595339   -1.38444e-03   6.05310e-05 DIIS
   @DF-RHF iter   5:  -224.76231767070408   -1.78355e-04   1.19893e-05 DIIS
   @DF-RHF iter   6:  -224.76233462817558   -1.69575e-05   4.96772e-06 DIIS
   @DF-RHF iter   7:  -224.76233858421196   -3.95604e-06   2.18806e-06 DIIS
   @DF-RHF iter   8:  -224.76233934495406   -7.60742e-07   1.01700e-06 DIIS
   @DF-RHF iter   9:  -224.76233951259661   -1.67643e-07   2.83302e-07 DIIS
   @DF-RHF iter  10:  -224.76233952141683   -8.82022e-09   8.55547e-08 DIIS
   @DF-RHF iter  11:  -224.76233952210677   -6.89937e-10   1.99714e-08 DIIS
   @DF-RHF iter  12:  -224.76233952215247   -4.57021e-11   5.81092e-09 DIIS
   @DF-RHF iter  13:  -224.76233952215748   -5.00222e-12   2.83097e-09 DIIS
   @DF-RHF iter  14:  -224.76233952215804   -5.68434e-13   9.75191e-10 DIIS
   @DF-RHF iter  15:  -224.76233952215784    1.98952e-13   4.15547e-10 DIIS
   @DF-RHF iter  16:  -224.76233952215870   -8.52651e-13   1.25998e-10 DIIS
   @DF-RHF iter  17:  -224.76233952215819    5.11591e-13   4.47781e-11 DIIS
  Energy and wave function converged.


  ==> Post-Iterations <==

    Orbital Energies [Eh]
    ---------------------

    Doubly Occupied:                                                      

       1A    -15.636223     2A    -15.592313     3A    -11.279894  
       4A    -11.237784     5A    -11.209891     6A     -1.386922  
       7A     -1.121901     8A     -1.066898     9A     -0.872768  
      10A     -0.837061    11A     -0.757292    12A     -0.645746  
      13A     -0.620834    14A     -0.609140    15A     -0.583920  
      16A     -0.461404    17A     -0.370721    18A     -0.346048  

    Virtual:                                                              

      19A      0.023146    20A      0.030764    21A      0.040464  
      22A      0.042371    23A      0.044604    24A      0.049160  
      25A      0.063513    26A      0.066323    27A      0.084456  
      28A      0.091239    29A      0.099469    30A      0.100998  
      31A      0.104029    32A      0.117178    33A      0.118811  
      34A      0.126248    35A      0.126316    36A      0.128671  
      37A      0.133069    38A      0.133850    39A      0.134575  
      40A      0.138406    41A      0.141501    42A      0.156889  
      43A      0.159012    44A      0.164592    45A      0.166412  
      46A      0.171075    47A      0.178383    48A      0.179703  
      49A      0.195988    50A      0.196067    51A      0.202035  
      52A      0.204793    53A      0.206162    54A      0.223490  
      55A      0.225631    56A      0.228764    57A      0.236081  
      58A      0.240237    59A      0.243627    60A      0.244966  
      61A      0.264625    62A      0.271127    63A      0.271502  
      64A      0.279081    65A      0.301011    66A      0.322461  
      67A      0.325151    68A      0.340570    69A      0.352358  
      70A      0.355359    71A      0.367053    72A      0.373390  
      73A      0.374907    74A      0.384215    75A      0.396063  
      76A      0.402741    77A      0.414998    78A      0.427961  
      79A      0.432131    80A      0.432545    81A      0.441639  
      82A      0.442781    83A      0.443386    84A      0.453393  
      85A      0.456506    86A      0.457918    87A      0.459816  
      88A      0.462394    89A      0.478655    90A      0.498543  
      91A      0.508689    92A      0.510221    93A      0.519916  
      94A      0.521917    95A      0.533637    96A      0.538540  
      97A      0.541569    98A      0.559812    99A      0.569333  
     100A      0.572323   101A      0.574433   102A      0.586318  
     103A      0.590539   104A      0.595659   105A      0.602414  
     106A      0.613880   107A      0.620953   108A      0.621770  
     109A      0.634037   110A      0.646110   111A      0.655296  
     112A      0.676162   113A      0.691338   114A      0.698041  
     115A      0.700391   116A      0.708342   117A      0.719941  
     118A      0.721667   119A      0.725115   120A      0.736152  
     121A      0.745879   122A      0.747709   123A      0.758593  
     124A      0.773318   125A      0.781481   126A      0.790232  
     127A      0.798623   128A      0.814952   129A      0.821465  
     130A      0.828504   131A      0.838230   132A      0.848394  
     133A      0.852433   134A      0.855602   135A      0.871528  
     136A      0.881395   137A      0.881579   138A      0.888767  
     139A      0.896201   140A      0.906950   141A      0.916674  
     142A      0.924815   143A      0.942583   144A      0.952641  
     145A      0.978222   146A      0.984850   147A      0.997727  
     148A      1.011149   149A      1.024735   150A      1.030818  
     151A      1.046606   152A      1.052212   153A      1.066504  
     154A      1.071633   155A      1.081554   156A      1.100852  
     157A      1.108771   158A      1.128060   159A      1.134196  
     160A      1.150235   161A      1.159394   162A      1.166905  
     163A      1.175168   164A      1.185570   165A      1.220548  
     166A      1.222333   167A      1.237633   168A      1.268612  
     169A      1.269556   170A      1.294370   171A      1.303342  
     172A      1.311399   173A      1.315767   174A      1.341306  
     175A      1.365807   176A      1.382463   177A      1.401044  
     178A      1.435635   179A      1.445351   180A      1.474691  
     181A      1.493846   182A      1.507655   183A      1.512027  
     184A      1.526129   185A      1.560989   186A      1.590883  
     187A      1.608669   188A      1.637437   189A      1.669473  
     190A      1.677362   191A      1.689550   192A      1.703634  
     193A      1.723950   194A      1.749215   195A      1.764373  
     196A      1.805048   197A      1.875633   198A      1.932390  
     199A      1.943558   200A      1.988067   201A      2.021446  
     202A      2.041677   203A      2.057611   204A      2.088839  
     205A      2.109660   206A      2.135450   207A      2.144688  
     208A      2.168694   209A      2.190005   210A      2.200827  
     211A      2.217251   212A      2.230457   213A      2.234465  
     214A      2.262478   215A      2.275825   216A      2.278381  
     217A      2.289874   218A      2.307640   219A      2.336317  
     220A      2.360716   221A      2.381217   222A      2.389130  
     223A      2.393822   224A      2.395143   225A      2.435246  
     226A      2.444482   227A      2.464967   228A      2.478929  
     229A      2.500495   230A      2.514265   231A      2.531798  
     232A      2.549412   233A      2.570232   234A      2.584716  
     235A      2.631963   236A      2.642961   237A      2.668143  
     238A      2.703641   239A      2.719504   240A      2.733029  
     241A      2.826838   242A      2.828538   243A      2.834751  
     244A      2.870428   245A      2.890643   246A      2.901587  
     247A      2.918598   248A      2.945788   249A      2.999157  
     250A      3.028687   251A      3.055324   252A      3.090467  
     253A      3.092358   254A      3.122730   255A      3.140654  
     256A      3.182614   257A      3.188931   258A      3.222008  
     259A      3.254793   260A      3.289865   261A      3.297865  
     262A      3.356425   263A      3.380235   264A      3.396268  
     265A      3.424135   266A      3.448947   267A      3.487807  
     268A      3.498126   269A      3.520727   270A      3.634257  
     271A      3.667600   272A      3.686563   273A      3.736261  
     274A      3.770750   275A      3.851814   276A      3.889327  
     277A      3.965029   278A      4.036194   279A      4.095416  
     280A      4.209429   281A      4.244735   282A      4.449097  
     283A      4.463235   284A      4.659117   285A      4.708704  
     286A      4.750569   287A      4.811440   288A      4.995522  
     289A      5.077476   290A      5.242103   291A      5.531914  
     292A      5.669631   293A      5.827497   294A      6.107373  
     295A      6.318945   296A      6.709037   297A      6.968537  
     298A     18.111815   299A     18.648507   300A     19.374210  
     301A     25.246257   302A     25.705634  

    Final Occupation by Irrep:
              A 
    DOCC [    18 ]

  @DF-RHF Final Energy:  -224.76233952215819

   => Energetics <=

    Nuclear Repulsion Energy =            166.6240564503272026
    One-Electron Energy =                -633.4992733912685026
    Two-Electron Energy =                 242.1128774187831141
    Total Energy =                       -224.7623395221581859

Computation Completed


Properties will be evaluated at   0.000000,   0.000000,   0.000000 [a0]

Properties computed using the SCF density matrix

  Nuclear Dipole Moment: [e a0]
     X:   162.5886      Y:  -104.5054      Z:    23.1563

  Electronic Dipole Moment: [e a0]
     X:  -162.9913      Y:   105.1370      Z:   -22.5767

  Dipole Moment: [e a0]
     X:    -0.4027      Y:     0.6317      Z:     0.5796     Total:     0.9472

  Dipole Moment: [D]
     X:    -1.0235      Y:     1.6055      Z:     1.4733     Total:     2.4075


*** tstop() called on ds1 at Mon Oct  4 13:41:36 2021
Module time:
	user time   =      15.92 seconds =       0.27 minutes
	system time =       0.34 seconds =       0.01 minutes
	total time  =          4 seconds =       0.07 minutes
Total time:
	user time   =      38.68 seconds =       0.64 minutes
	system time =       0.91 seconds =       0.02 minutes
	total time  =          8 seconds =       0.13 minutes

  //>>>>>>>>>>>>>>>>>>>>>>>>>>>>>>>>>>>//
  //            Monomer B HF           //
  //<<<<<<<<<<<<<<<<<<<<<<<<<<<<<<<<<<<//


*** tstart() called on ds1
*** at Mon Oct  4 13:41:36 2021

   => Loading Basis Set <=

    Name: AUG-CC-PVDZ
    Role: ORBITAL
    Keyword: BASIS
    atoms 1-2, 10-11 entry N          line   218 file /theoryfs2/ds/csargent/miniconda3/envs/cle/share/psi4/basis/aug-cc-pvdz.gbs 
    atoms 3-6, 12-15 entry H          line    40 file /theoryfs2/ds/csargent/miniconda3/envs/cle/share/psi4/basis/aug-cc-pvdz.gbs 
    atoms 7-9, 16-18 entry C          line   182 file /theoryfs2/ds/csargent/miniconda3/envs/cle/share/psi4/basis/aug-cc-pvdz.gbs 


         ---------------------------------------------------------
                                   SCF
               by Justin Turney, Rob Parrish, Andy Simmonett
                          and Daniel G. A. Smith
                              RHF Reference
                        6 Threads,   6675 MiB Core
         ---------------------------------------------------------

  ==> Geometry <==

    Molecular point group: c1
    Full point group: C1

    Geometry (in Bohr), charge = 0, multiplicity = 1:

       Center              X                  Y                   Z               Mass       
    ------------   -----------------  -----------------  -----------------  -----------------
      Gh(N)           6.279812100000    -4.253033720000     0.193138650000    14.003074004430
      Gh(N)           6.068707770000    -2.281256970000     1.805443170000    14.003074004430
      Gh(H)           3.668711560000    -5.646289410000    -1.966840010000     1.007825032230
      Gh(H)           0.690345210000    -2.375456940000    -0.428642360000     1.007825032230
      Gh(H)           3.359174420000     0.176506010000     3.092650170000     1.007825032230
      Gh(H)           7.352667820000    -1.994613110000     2.906807020000     1.007825032230
      Gh(C)           3.779525860000    -1.215084530000     1.768581720000    12.000000000000
      Gh(C)           2.382429980000    -2.555055380000     0.046076810000    12.000000000000
      Gh(C)           4.017714680000    -4.384104900000    -0.887618630000    12.000000000000
         N           -1.458616380000   -19.427317570000   -25.745291930000    14.003074004430
         N           -1.669720710000   -21.399094310000   -27.357596450000    14.003074004430
         H           -4.069716920000   -18.034061870000   -23.585313270000     1.007825032230
         H           -7.048083280000   -21.304894340000   -25.123510920000     1.007825032230
         H           -4.379254060000   -23.856857300000   -28.644803450000     1.007825032230
         H           -0.385760660000   -21.685738180000   -28.458960300000     1.007825032230
         C           -3.958902630000   -22.465266760000   -27.320735000000    12.000000000000
         C           -5.355998510000   -21.125295900000   -25.598230100000    12.000000000000
         C           -3.720713800000   -19.296246390000   -24.664534650000    12.000000000000

  Running in c1 symmetry.

  Rotational constants: A =      0.02565  B =      0.00078  C =      0.00076 [cm^-1]
  Rotational constants: A =    769.02647  B =     23.39740  C =     22.76624 [MHz]
  Nuclear repulsion =  166.624056347111264

  Charge       = 0
  Multiplicity = 1
  Electrons    = 36
  Nalpha       = 18
  Nbeta        = 18

  ==> Algorithm <==

  SCF Algorithm Type is DF.
  DIIS enabled.
  MOM disabled.
  Fractional occupation disabled.
  Guess Type is SAD.
  Energy threshold   = 1.00e-10
  Density threshold  = 1.00e-10
  Integral threshold = 1.00e-12

  ==> Primary Basis <==

  Basis Set: AUG-CC-PVDZ
    Blend: AUG-CC-PVDZ
    Number of shells: 130
    Number of basis functions: 302
    Number of Cartesian functions: 322
    Spherical Harmonics?: true
    Max angular momentum: 2

   => Loading Basis Set <=

    Name: (AUG-CC-PVDZ AUX)
    Role: JKFIT
    Keyword: DF_BASIS_SCF
    atoms 1-2, 10-11 entry N          line   212 file /theoryfs2/ds/csargent/miniconda3/envs/cle/share/psi4/basis/aug-cc-pvdz-jkfit.gbs 
    atoms 3-6, 12-15 entry H          line    70 file /theoryfs2/ds/csargent/miniconda3/envs/cle/share/psi4/basis/aug-cc-pvdz-jkfit.gbs 
    atoms 7-9, 16-18 entry C          line   154 file /theoryfs2/ds/csargent/miniconda3/envs/cle/share/psi4/basis/aug-cc-pvdz-jkfit.gbs 

  ==> Integral Setup <==

  ==> DiskDFJK: Density-Fitted J/K Matrices <==

    J tasked:                  Yes
    K tasked:                  Yes
    wK tasked:                  No
    OpenMP threads:              6
    Integrals threads:           6
    Memory [MiB]:             5006
    Algorithm:                Core
    Integral Cache:           LOAD
    Schwarz Cutoff:          1E-12
    Fitting Condition:       1E-10

   => Auxiliary Basis Set <=

  Basis Set: (AUG-CC-PVDZ AUX)
    Blend: AUG-CC-PVDZ-JKFIT
    Number of shells: 376
    Number of basis functions: 1116
    Number of Cartesian functions: 1290
    Spherical Harmonics?: true
    Max angular momentum: 3

  Minimum eigenvalue in the overlap matrix is 3.0332693304E-05.
  Reciprocal condition number of the overlap matrix is 2.4873969094E-06.
    Using symmetric orthogonalization.

  ==> Pre-Iterations <==

  SCF Guess: Superposition of Atomic Densities via on-the-fly atomic UHF (no occupation information).

   -------------------------
    Irrep   Nso     Nmo    
   -------------------------
     A        302     302 
   -------------------------
    Total     302     302
   -------------------------

  ==> Iterations <==

                           Total Energy        Delta E     RMS |[F,P]|

   @DF-RHF iter SAD:  -224.72194800598251   -2.24722e+02   0.00000e+00 
   @DF-RHF iter   1:  -224.63549170306578    8.64563e-02   1.50472e-03 DIIS
   @DF-RHF iter   2:  -224.73984613576462   -1.04354e-01   6.88462e-04 DIIS
   @DF-RHF iter   3:  -224.76075487459397   -2.09087e-02   1.48626e-04 DIIS
   @DF-RHF iter   4:  -224.76213931837196   -1.38444e-03   6.05310e-05 DIIS
   @DF-RHF iter   5:  -224.76231767312956   -1.78355e-04   1.19893e-05 DIIS
   @DF-RHF iter   6:  -224.76233463060282   -1.69575e-05   4.96772e-06 DIIS
   @DF-RHF iter   7:  -224.76233858664023   -3.95604e-06   2.18806e-06 DIIS
   @DF-RHF iter   8:  -224.76233934738264   -7.60742e-07   1.01700e-06 DIIS
   @DF-RHF iter   9:  -224.76233951502465   -1.67642e-07   2.83302e-07 DIIS
   @DF-RHF iter  10:  -224.76233952384499   -8.82034e-09   8.55547e-08 DIIS
   @DF-RHF iter  11:  -224.76233952453475   -6.89766e-10   1.99714e-08 DIIS
   @DF-RHF iter  12:  -224.76233952458102   -4.62705e-11   5.81092e-09 DIIS
   @DF-RHF iter  13:  -224.76233952458543   -4.40536e-12   2.83097e-09 DIIS
   @DF-RHF iter  14:  -224.76233952458628   -8.52651e-13   9.75191e-10 DIIS
   @DF-RHF iter  15:  -224.76233952458642   -1.42109e-13   4.15548e-10 DIIS
   @DF-RHF iter  16:  -224.76233952458628    1.42109e-13   1.25997e-10 DIIS
   @DF-RHF iter  17:  -224.76233952458631   -2.84217e-14   4.47775e-11 DIIS
  Energy and wave function converged.


  ==> Post-Iterations <==

    Orbital Energies [Eh]
    ---------------------

    Doubly Occupied:                                                      

       1A    -15.636223     2A    -15.592313     3A    -11.279894  
       4A    -11.237784     5A    -11.209891     6A     -1.386922  
       7A     -1.121901     8A     -1.066898     9A     -0.872768  
      10A     -0.837061    11A     -0.757292    12A     -0.645746  
      13A     -0.620834    14A     -0.609140    15A     -0.583920  
      16A     -0.461404    17A     -0.370721    18A     -0.346048  

    Virtual:                                                              

      19A      0.023456    20A      0.030764    21A      0.040864  
      22A      0.042371    23A      0.044874    24A      0.049160  
      25A      0.063513    26A      0.066619    27A      0.084757  
      28A      0.091613    29A      0.099757    30A      0.100998  
      31A      0.104029    32A      0.117178    33A      0.119184  
      34A      0.126267    35A      0.126670    36A      0.128974  
      37A      0.133069    38A      0.134173    39A      0.134881  
      40A      0.138405    41A      0.141500    42A      0.156889  
      43A      0.159398    44A      0.164593    45A      0.166712  
      46A      0.171075    47A      0.178386    48A      0.179979  
      49A      0.196035    50A      0.196286    51A      0.202290  
      52A      0.204793    53A      0.206162    54A      0.223752  
      55A      0.225952    56A      0.229123    57A      0.236363  
      58A      0.240238    59A      0.243627    60A      0.244966  
      61A      0.264946    62A      0.271127    63A      0.271734  
      64A      0.279080    65A      0.301010    66A      0.322800  
      67A      0.325149    68A      0.340850    69A      0.352358  
      70A      0.355359    71A      0.367348    72A      0.373732  
      73A      0.374907    74A      0.384542    75A      0.396062  
      76A      0.402741    77A      0.414998    78A      0.428235  
      79A      0.432131    80A      0.432873    81A      0.441975  
      82A      0.443095    83A      0.443387    84A      0.453393  
      85A      0.456792    86A      0.458252    87A      0.459816  
      88A      0.462686    89A      0.478655    90A      0.498543  
      91A      0.508690    92A      0.510496    93A      0.520196  
      94A      0.521917    95A      0.533899    96A      0.538891  
      97A      0.541570    98A      0.560127    99A      0.569561  
     100A      0.572660   101A      0.574432   102A      0.586318  
     103A      0.590539   104A      0.595993   105A      0.602413  
     106A      0.614210   107A      0.620953   108A      0.622064  
     109A      0.634341   110A      0.646110   111A      0.655296  
     112A      0.676162   113A      0.691662   114A      0.698041  
     115A      0.700391   116A      0.708659   117A      0.720244  
     118A      0.721667   119A      0.725115   120A      0.736458  
     121A      0.746225   122A      0.747709   123A      0.758593  
     124A      0.773318   125A      0.781481   126A      0.790567  
     127A      0.798894   128A      0.815274   129A      0.821777  
     130A      0.828504   131A      0.838230   132A      0.848394  
     133A      0.852753   134A      0.855891   135A      0.871855  
     136A      0.881395   137A      0.881900   138A      0.888767  
     139A      0.896526   140A      0.906950   141A      0.916960  
     142A      0.924815   143A      0.942583   144A      0.952947  
     145A      0.978222   146A      0.984850   147A      0.998024  
     148A      1.011149   149A      1.025060   150A      1.031106  
     151A      1.046606   152A      1.052485   153A      1.066504  
     154A      1.071943   155A      1.081899   156A      1.100852  
     157A      1.109053   158A      1.128060   159A      1.134196  
     160A      1.150235   161A      1.159661   162A      1.167212  
     163A      1.175168   164A      1.185872   165A      1.220548  
     166A      1.222584   167A      1.237904   168A      1.268896  
     169A      1.269557   170A      1.294635   171A      1.303342  
     172A      1.311399   173A      1.316053   174A      1.341611  
     175A      1.365807   176A      1.382773   177A      1.401043  
     178A      1.435896   179A      1.445616   180A      1.474691  
     181A      1.494105   182A      1.507937   183A      1.512027  
     184A      1.526129   185A      1.560989   186A      1.590883  
     187A      1.608669   188A      1.637437   189A      1.669473  
     190A      1.677627   191A      1.689818   192A      1.703634  
     193A      1.723950   194A      1.749215   195A      1.764373  
     196A      1.805048   197A      1.875633   198A      1.932390  
     199A      1.943558   200A      1.988067   201A      2.021446  
     202A      2.042013   203A      2.057612   204A      2.088839  
     205A      2.109954   206A      2.135792   207A      2.144687  
     208A      2.169028   209A      2.190005   210A      2.200827  
     211A      2.217564   212A      2.230457   213A      2.234798  
     214A      2.262804   215A      2.275825   216A      2.278740  
     217A      2.290196   218A      2.307640   219A      2.336625  
     220A      2.360716   221A      2.381578   222A      2.389130  
     223A      2.393822   224A      2.395439   225A      2.435246  
     226A      2.444784   227A      2.464967   228A      2.479263  
     229A      2.500839   230A      2.514506   231A      2.531798  
     232A      2.549723   233A      2.570232   234A      2.584716  
     235A      2.632277   236A      2.642961   237A      2.668427  
     238A      2.703915   239A      2.719809   240A      2.733029  
     241A      2.826838   242A      2.828869   243A      2.834751  
     244A      2.870678   245A      2.890950   246A      2.901587  
     247A      2.918598   248A      2.946100   249A      2.999157  
     250A      3.028994   251A      3.055324   252A      3.090758  
     253A      3.092358   254A      3.122730   255A      3.140967  
     256A      3.182912   257A      3.188931   258A      3.222008  
     259A      3.255073   260A      3.290159   261A      3.297865  
     262A      3.356696   263A      3.380236   264A      3.396548  
     265A      3.424386   266A      3.449263   267A      3.488102  
     268A      3.498439   269A      3.520727   270A      3.634545  
     271A      3.667885   272A      3.686563   273A      3.736568  
     274A      3.771013   275A      3.852052   276A      3.889327  
     277A      3.965331   278A      4.036452   279A      4.095689  
     280A      4.209429   281A      4.245015   282A      4.449389  
     283A      4.463235   284A      4.659392   285A      4.708966  
     286A      4.750872   287A      4.811718   288A      4.995814  
     289A      5.077750   290A      5.242384   291A      5.532200  
     292A      5.669886   293A      5.827765   294A      6.107653  
     295A      6.319285   296A      6.709365   297A      6.968816  
     298A     18.112149   299A     18.648829   300A     19.374522  
     301A     25.246521   302A     25.705877  

    Final Occupation by Irrep:
              A 
    DOCC [    18 ]

  @DF-RHF Final Energy:  -224.76233952458631

   => Energetics <=

    Nuclear Repulsion Energy =            166.6240563471112637
    One-Electron Energy =                -633.4992731980717053
    Two-Electron Energy =                 242.1128773263741323
    Total Energy =                       -224.7623395245863094

Computation Completed


Properties will be evaluated at   0.000000,   0.000000,   0.000000 [a0]

Properties computed using the SCF density matrix

  Nuclear Dipole Moment: [e a0]
     X:  -115.9949      Y:  -747.9873      Z:  -943.0338

  Electronic Dipole Moment: [e a0]
     X:   115.5922      Y:   747.3556      Z:   942.4542

  Dipole Moment: [e a0]
     X:    -0.4027      Y:    -0.6317      Z:    -0.5796     Total:     0.9472

  Dipole Moment: [D]
     X:    -1.0235      Y:    -1.6055      Z:    -1.4733     Total:     2.4075


*** tstop() called on ds1 at Mon Oct  4 13:41:39 2021
Module time:
	user time   =      16.29 seconds =       0.27 minutes
	system time =       0.32 seconds =       0.01 minutes
	total time  =          3 seconds =       0.05 minutes
Total time:
	user time   =      55.05 seconds =       0.92 minutes
	system time =       1.24 seconds =       0.02 minutes
	total time  =         11 seconds =       0.18 minutes
  Constructing Basis Sets for SAPT...

   => Loading Basis Set <=

    Name: (AUG-CC-PVDZ AUX)
    Role: RIFIT
    Keyword: DF_BASIS_SAPT
    atoms 1-2, 10-11 entry N          line   158 file /theoryfs2/ds/csargent/miniconda3/envs/cle/share/psi4/basis/aug-cc-pvdz-ri.gbs 
    atoms 3-6, 12-15 entry H          line    30 file /theoryfs2/ds/csargent/miniconda3/envs/cle/share/psi4/basis/aug-cc-pvdz-ri.gbs 
    atoms 7-9, 16-18 entry C          line   112 file /theoryfs2/ds/csargent/miniconda3/envs/cle/share/psi4/basis/aug-cc-pvdz-ri.gbs 


  //>>>>>>>>>>>>>>>>>>>>>>>>>>>>>>>>>>>//
  //               SAPT0               //
  //<<<<<<<<<<<<<<<<<<<<<<<<<<<<<<<<<<<//


*** tstart() called on ds1
*** at Mon Oct  4 13:41:40 2021

        SAPT0  
    Ed Hohenstein
     6 June 2009

      Orbital Information
  --------------------------
    NSO        =       302
    NMO        =       302
    NRI        =       904
    NOCC A     =        18
    NOCC B     =        18
    FOCC A     =         5
    FOCC B     =         5
    NVIR A     =       284
    NVIR B     =       284

    Elst10,r            =     0.000029302524 [Eh]
    Exch10              =     0.000000000002 [Eh]
    Exch10 (S^2)        =     0.000000000002 [Eh]

    Iter     Energy [mEh]          dE [mEh]         Residual      Time [s]
       1      -0.00005160       0.000051598       0.076451792             0
       2      -0.00004737      -0.000004231       0.018056668             0
       3      -0.00005175       0.000004384       0.006651227             0
       4      -0.00005232       0.000000566       0.001748278             0
       5      -0.00005223      -0.000000083       0.000931883             0
       6      -0.00005219      -0.000000048       0.000327780             1
       7      -0.00005219       0.000000007       0.000161341             1
       8      -0.00005220       0.000000007       0.000064340             1
       9      -0.00005220       0.000000001       0.000018994             1
      10      -0.00005220      -0.000000001       0.000005347             1
      11      -0.00005220      -0.000000000       0.000002315             1
      12      -0.00005220       0.000000000       0.000000661             1

    CHF Iterations converged


    Iter     Energy [mEh]          dE [mEh]         Residual      Time [s]
       1      -0.00002105       0.000021050       0.051971856             0
       2      -0.00001922      -0.000001826       0.012742697             1
       3      -0.00002116       0.000001934       0.005649104             1
       4      -0.00002154       0.000000385       0.001533984             1
       5      -0.00002146      -0.000000084       0.000910388             1
       6      -0.00002144      -0.000000023       0.000327452             1
       7      -0.00002144       0.000000009       0.000122779             1
       8      -0.00002145       0.000000003       0.000044516             1
       9      -0.00002145      -0.000000000       0.000012429             1
      10      -0.00002145      -0.000000000       0.000004033             2
      11      -0.00002145       0.000000000       0.000001403             2
      12      -0.00002145       0.000000000       0.000000364             2

    CHF Iterations converged

    Ind20,r (A<-B)      =    -0.000000052199 [Eh]
    Ind20,r (B<-A)      =    -0.000000021447 [Eh]
    Ind20,r             =    -0.000000073647 [Eh]
    Exch-Ind20,r (A<-B) =     0.000000000001 [Eh]
    Exch-Ind20,r (B<-A) =     0.000000000001 [Eh]
    Exch-Ind20,r        =     0.000000000002 [Eh]
    Disp20              =    -0.000001005972 [Eh]
    Disp20 (SS)         =    -0.000000502986 [Eh]
    Disp20 (OS)         =    -0.000000502986 [Eh]
    Exch-Disp20         =     0.000000000000 [Eh]
    Exch-Disp20 (SS)    =     0.000000000000 [Eh]
    Exch-Disp20 (OS)    =     0.000000000000 [Eh]

    SAPT Results 
  --------------------------------------------------------------------------------------------------------
    Electrostatics                  0.02930252 [mEh]       0.01838761 [kcal/mol]       0.07693376 [kJ/mol]
      Elst10,r                      0.02930252 [mEh]       0.01838761 [kcal/mol]       0.07693376 [kJ/mol]

    Exchange                        0.00000000 [mEh]       0.00000000 [kcal/mol]       0.00000000 [kJ/mol]
      Exch10                        0.00000000 [mEh]       0.00000000 [kcal/mol]       0.00000000 [kJ/mol]
      Exch10(S^2)                   0.00000000 [mEh]       0.00000000 [kcal/mol]       0.00000000 [kJ/mol]

    Induction                       0.00001034 [mEh]       0.00000649 [kcal/mol]       0.00002715 [kJ/mol]
      Ind20,r                      -0.00007365 [mEh]      -0.00004621 [kcal/mol]      -0.00019336 [kJ/mol]
      Exch-Ind20,r                  0.00000000 [mEh]       0.00000000 [kcal/mol]       0.00000001 [kJ/mol]
      delta HF,r (2)                0.00008399 [mEh]       0.00005270 [kcal/mol]       0.00022051 [kJ/mol]

    Dispersion                     -0.00100597 [mEh]      -0.00063126 [kcal/mol]      -0.00264118 [kJ/mol]
      Disp20                       -0.00100597 [mEh]      -0.00063126 [kcal/mol]      -0.00264118 [kJ/mol]
      Exch-Disp20                   0.00000000 [mEh]       0.00000000 [kcal/mol]       0.00000000 [kJ/mol]
      Disp20 (SS)                  -0.00050299 [mEh]      -0.00031563 [kcal/mol]      -0.00132059 [kJ/mol]
      Disp20 (OS)                  -0.00050299 [mEh]      -0.00031563 [kcal/mol]      -0.00132059 [kJ/mol]
      Exch-Disp20 (SS)              0.00000000 [mEh]       0.00000000 [kcal/mol]       0.00000000 [kJ/mol]
      Exch-Disp20 (OS)              0.00000000 [mEh]       0.00000000 [kcal/mol]       0.00000000 [kJ/mol]

  Total HF                          0.02931287 [mEh]       0.01839410 [kcal/mol]       0.07696092 [kJ/mol]
  Total SAPT0                       0.02830690 [mEh]       0.01776285 [kcal/mol]       0.07431974 [kJ/mol]

  Special recipe for scaled SAPT0 (see Manual):
    Electrostatics sSAPT0           0.02930252 [mEh]       0.01838761 [kcal/mol]       0.07693376 [kJ/mol]
    Exchange sSAPT0                 0.00000000 [mEh]       0.00000000 [kcal/mol]       0.00000000 [kJ/mol]
    Induction sSAPT0                0.00001034 [mEh]       0.00000649 [kcal/mol]       0.00002715 [kJ/mol]
    Dispersion sSAPT0              -0.00100597 [mEh]      -0.00063126 [kcal/mol]      -0.00264118 [kJ/mol]
  Total sSAPT0                      0.02830690 [mEh]       0.01776285 [kcal/mol]       0.07431974 [kJ/mol]
  --------------------------------------------------------------------------------------------------------

*** tstop() called on ds1 at Mon Oct  4 13:41:49 2021
Module time:
	user time   =      46.16 seconds =       0.77 minutes
	system time =       4.06 seconds =       0.07 minutes
	total time  =          9 seconds =       0.15 minutes
Total time:
	user time   =     101.84 seconds =       1.70 minutes
	system time =       5.32 seconds =       0.09 minutes
	total time  =         21 seconds =       0.35 minutes


Warning! sapt0 does not have an associated derived wavefunction.The returned wavefunction is the dimer SCF wavefunction.


    Psi4 stopped on: Monday, 04 October 2021 01:41PM
    Psi4 wall time for execution: 0:00:21.82

*** Psi4 exiting successfully. Buy a developer a beer!
