
    -----------------------------------------------------------------------
          Psi4: An Open-Source Ab Initio Electronic Structure Package
                               Psi4 1.4rc3 

                         Git: Rev {HEAD} 080dba6 


    D. G. A. Smith, L. A. Burns, A. C. Simmonett, R. M. Parrish,
    M. C. Schieber, R. Galvelis, P. Kraus, H. Kruse, R. Di Remigio,
    A. Alenaizan, A. M. James, S. Lehtola, J. P. Misiewicz, M. Scheurer,
    R. A. Shaw, J. B. Schriber, Y. Xie, Z. L. Glick, D. A. Sirianni,
    J. S. O'Brien, J. M. Waldrop, A. Kumar, E. G. Hohenstein,
    B. P. Pritchard, B. R. Brooks, H. F. Schaefer III, A. Yu. Sokolov,
    K. Patkowski, A. E. DePrince III, U. Bozkaya, R. A. King,
    F. A. Evangelista, J. M. Turney, T. D. Crawford, C. D. Sherrill,
    J. Chem. Phys. 152(18) 184108 (2020). https://doi.org/10.1063/5.0006002

                            Additional Code Authors
    E. T. Seidl, C. L. Janssen, E. F. Valeev, M. L. Leininger,
    J. F. Gonthier, R. M. Richard, H. R. McAlexander, M. Saitow, X. Wang,
    P. Verma, and M. H. Lechner

             Previous Authors, Complete List of Code Contributors,
                       and Citations for Specific Modules
    https://github.com/psi4/psi4/blob/master/codemeta.json
    https://github.com/psi4/psi4/graphs/contributors
    http://psicode.org/psi4manual/master/introduction.html#citing-psifour

    -----------------------------------------------------------------------


    Psi4 started on: Monday, 04 October 2021 01:28PM

    Process ID: 7929
    Host:       ds1
    PSIDATADIR: /theoryfs2/ds/csargent/miniconda3/envs/cle/share/psi4
    Memory:     500.0 MiB
    Threads:    6
    
  ==> Input File <==

--------------------------------------------------------------------------
# PSI4 file produced by CrystaLattE

# Generated from:               pyrazole.xyz
# Psithon input for N-mer:      2mer-0+349
# Number of atoms per monomer:  [9, 9]
# Number of replicas:           2
# COM priority:                 1.442160684344e-05
# Minimum COM separations:      21.740 
# Separation priority:          2.239587932311e-05
# Minimum monomer separations:  18.773 
# Cutoff priority:              6.312830930563e-07
# Nuclear repulsion energy:     364.84395905562593

memory 7 GB

molecule Dimer_0_349 {
  N            6.27981210      -4.25303372       0.19313865 
  N            6.06870777      -2.28125697       1.80544317 
  H            3.66871156      -5.64628941      -1.96684001 
  H            0.69034521      -2.37545694      -0.42864236 
  H            3.35917442       0.17650601       3.09265017 
  H            7.35266782      -1.99461311       2.90680702 
  C            3.77952586      -1.21508453       1.76858172 
  C            2.38242998      -2.55505538       0.04607681 
  C            4.01771468      -4.38410490      -0.88761863 
--
  N          -24.67390184      19.53483875      12.99225369 
  N          -24.88500617      21.50661550      14.60455822 
  H          -27.28500238      18.14158306      10.83227504 
  H          -30.26336873      21.41241552      12.37047268 
  H          -27.59453951      23.96437848      15.89176522 
  H          -23.60104611      21.79325936      15.70592207 
  C          -27.17418808      22.57278794      14.56769677 
  C          -28.57128396      21.23281709      12.84519186 
  C          -26.93599925      19.40376757      11.91149642 
units = au
no_com
no_reorient
}

set {
  e_convergence 10
  d_convergence 10
  scf_type df
  mp2_type df
  cc_type df
  freeze_core true
}

energy('sapt0/aug-cc-pvdz')

--------------------------------------------------------------------------

  Memory set to   6.519 GiB by Python driver.

Scratch directory: /scratch/csargent/psi4.7158.66302/

Scratch directory: /scratch/csargent/psi4.7158.66302/

  //>>>>>>>>>>>>>>>>>>>>>>>>>>>>>>>>>>>//
  //              Dimer HF             //
  //<<<<<<<<<<<<<<<<<<<<<<<<<<<<<<<<<<<//


*** tstart() called on ds1
*** at Mon Oct  4 13:28:36 2021

   => Loading Basis Set <=

    Name: AUG-CC-PVDZ
    Role: ORBITAL
    Keyword: BASIS
    atoms 1-2, 10-11 entry N          line   218 file /theoryfs2/ds/csargent/miniconda3/envs/cle/share/psi4/basis/aug-cc-pvdz.gbs 
    atoms 3-6, 12-15 entry H          line    40 file /theoryfs2/ds/csargent/miniconda3/envs/cle/share/psi4/basis/aug-cc-pvdz.gbs 
    atoms 7-9, 16-18 entry C          line   182 file /theoryfs2/ds/csargent/miniconda3/envs/cle/share/psi4/basis/aug-cc-pvdz.gbs 


         ---------------------------------------------------------
                                   SCF
               by Justin Turney, Rob Parrish, Andy Simmonett
                          and Daniel G. A. Smith
                              RHF Reference
                        6 Threads,   6675 MiB Core
         ---------------------------------------------------------

  ==> Geometry <==

    Molecular point group: c1
    Full point group: C1

    Geometry (in Bohr), charge = 0, multiplicity = 1:

       Center              X                  Y                   Z               Mass       
    ------------   -----------------  -----------------  -----------------  -----------------
         N            6.279812100000    -4.253033720000     0.193138650000    14.003074004430
         N            6.068707770000    -2.281256970000     1.805443170000    14.003074004430
         H            3.668711560000    -5.646289410000    -1.966840010000     1.007825032230
         H            0.690345210000    -2.375456940000    -0.428642360000     1.007825032230
         H            3.359174420000     0.176506010000     3.092650170000     1.007825032230
         H            7.352667820000    -1.994613110000     2.906807020000     1.007825032230
         C            3.779525860000    -1.215084530000     1.768581720000    12.000000000000
         C            2.382429980000    -2.555055380000     0.046076810000    12.000000000000
         C            4.017714680000    -4.384104900000    -0.887618630000    12.000000000000
         N          -24.673901840000    19.534838750000    12.992253690000    14.003074004430
         N          -24.885006170000    21.506615500000    14.604558220000    14.003074004430
         H          -27.285002380000    18.141583060000    10.832275040000     1.007825032230
         H          -30.263368730000    21.412415520000    12.370472680000     1.007825032230
         H          -27.594539510000    23.964378480000    15.891765220000     1.007825032230
         H          -23.601046110000    21.793259360000    15.705922070000     1.007825032230
         C          -27.174188080000    22.572787940000    14.567696770000    12.000000000000
         C          -28.571283960000    21.232817090000    12.845191860000    12.000000000000
         C          -26.935999250000    19.403767570000    11.911496420000    12.000000000000

  Running in c1 symmetry.

  Rotational constants: A =      0.07222  B =      0.00066  C =      0.00065 [cm^-1]
  Rotational constants: A =   2164.95230  B =     19.77389  C =     19.62872 [MHz]
  Nuclear repulsion =  364.843959044446478

  Charge       = 0
  Multiplicity = 1
  Electrons    = 72
  Nalpha       = 36
  Nbeta        = 36

  ==> Algorithm <==

  SCF Algorithm Type is DF.
  DIIS enabled.
  MOM disabled.
  Fractional occupation disabled.
  Guess Type is SAD.
  Energy threshold   = 1.00e-10
  Density threshold  = 1.00e-10
  Integral threshold = 1.00e-12

  ==> Primary Basis <==

  Basis Set: AUG-CC-PVDZ
    Blend: AUG-CC-PVDZ
    Number of shells: 130
    Number of basis functions: 302
    Number of Cartesian functions: 322
    Spherical Harmonics?: true
    Max angular momentum: 2

   => Loading Basis Set <=

    Name: (AUG-CC-PVDZ AUX)
    Role: JKFIT
    Keyword: DF_BASIS_SCF
    atoms 1-2, 10-11 entry N          line   212 file /theoryfs2/ds/csargent/miniconda3/envs/cle/share/psi4/basis/aug-cc-pvdz-jkfit.gbs 
    atoms 3-6, 12-15 entry H          line    70 file /theoryfs2/ds/csargent/miniconda3/envs/cle/share/psi4/basis/aug-cc-pvdz-jkfit.gbs 
    atoms 7-9, 16-18 entry C          line   154 file /theoryfs2/ds/csargent/miniconda3/envs/cle/share/psi4/basis/aug-cc-pvdz-jkfit.gbs 

  ==> Integral Setup <==

  ==> DiskDFJK: Density-Fitted J/K Matrices <==

    J tasked:                  Yes
    K tasked:                  Yes
    wK tasked:                  No
    OpenMP threads:              6
    Integrals threads:           6
    Memory [MiB]:             5006
    Algorithm:                Core
    Integral Cache:           SAVE
    Schwarz Cutoff:          1E-12
    Fitting Condition:       1E-10

   => Auxiliary Basis Set <=

  Basis Set: (AUG-CC-PVDZ AUX)
    Blend: AUG-CC-PVDZ-JKFIT
    Number of shells: 376
    Number of basis functions: 1116
    Number of Cartesian functions: 1290
    Spherical Harmonics?: true
    Max angular momentum: 3

  Minimum eigenvalue in the overlap matrix is 3.0333777181E-05.
  Reciprocal condition number of the overlap matrix is 2.4874860285E-06.
    Using symmetric orthogonalization.

  ==> Pre-Iterations <==

  SCF Guess: Superposition of Atomic Densities via on-the-fly atomic UHF (no occupation information).

   -------------------------
    Irrep   Nso     Nmo    
   -------------------------
     A        302     302 
   -------------------------
    Total     302     302
   -------------------------

  ==> Iterations <==

                           Total Energy        Delta E     RMS |[F,P]|

   @DF-RHF iter SAD:  -449.44389602500246   -4.49444e+02   0.00000e+00 
   @DF-RHF iter   1:  -449.27098770006967    1.72908e-01   2.12808e-03 DIIS
   @DF-RHF iter   2:  -449.47969049027739   -2.08703e-01   9.73848e-04 DIIS
   @DF-RHF iter   3:  -449.52152628208114   -4.18358e-02   2.10305e-04 DIIS
   @DF-RHF iter   4:  -449.52429670887022   -2.77043e-03   8.57068e-05 DIIS
   @DF-RHF iter   5:  -449.52465420442388   -3.57496e-04   1.69545e-05 DIIS
   @DF-RHF iter   6:  -449.52468812933483   -3.39249e-05   7.02727e-06 DIIS
   @DF-RHF iter   7:  -449.52469604229248   -7.91296e-06   3.09695e-06 DIIS
   @DF-RHF iter   8:  -449.52469756581172   -1.52352e-06   1.43816e-06 DIIS
   @DF-RHF iter   9:  -449.52469790131011   -3.35498e-07   4.00536e-07 DIIS
   @DF-RHF iter  10:  -449.52469791894629   -1.76362e-08   1.20934e-07 DIIS
   @DF-RHF iter  11:  -449.52469792032224   -1.37595e-09   2.81963e-08 DIIS
   @DF-RHF iter  12:  -449.52469792041433   -9.20863e-11   8.19386e-09 DIIS
   @DF-RHF iter  13:  -449.52469792042217   -7.84439e-12   3.98250e-09 DIIS
   @DF-RHF iter  14:  -449.52469792042496   -2.78533e-12   1.36727e-09 DIIS
   @DF-RHF iter  15:  -449.52469792042444    5.11591e-13   5.84302e-10 DIIS
   @DF-RHF iter  16:  -449.52469792042473   -2.84217e-13   1.78018e-10 DIIS
   @DF-RHF iter  17:  -449.52469792042461    1.13687e-13   6.32997e-11 DIIS
  Energy and wave function converged.


  ==> Post-Iterations <==

    Orbital Energies [Eh]
    ---------------------

    Doubly Occupied:                                                      

       1A    -15.636691     2A    -15.635665     3A    -15.592787  
       4A    -15.591760     5A    -11.280349     6A    -11.279315  
       7A    -11.238256     8A    -11.237232     9A    -11.210339  
      10A    -11.209306    11A     -1.387392    12A     -1.386366  
      13A     -1.122372    14A     -1.121347    15A     -1.067356  
      16A     -1.066325    17A     -0.873233    18A     -0.872209  
      19A     -0.837522    20A     -0.836494    21A     -0.757747  
      22A     -0.756710    23A     -0.646210    24A     -0.645184  
      25A     -0.621291    26A     -0.620261    27A     -0.609609  
      28A     -0.608583    29A     -0.584376    30A     -0.583344  
      31A     -0.461888    32A     -0.460859    33A     -0.371189  
      34A     -0.370166    35A     -0.346508    36A     -0.345476  

    Virtual:                                                              

      37A      0.030344    38A      0.031402    39A      0.041974  
      40A      0.042987    41A      0.048679    42A      0.049732  
      43A      0.063071    44A      0.064113    45A      0.100564  
      46A      0.101595    47A      0.103545    48A      0.104588  
      49A      0.116726    50A      0.117721    51A      0.125812  
      52A      0.126831    53A      0.132630    54A      0.133669  
      55A      0.137987    56A      0.139028    57A      0.141080  
      58A      0.142142    59A      0.156486    60A      0.157549  
      61A      0.164176    62A      0.165212    63A      0.170609  
      64A      0.171626    65A      0.177949    66A      0.178970  
      67A      0.195551    68A      0.196580    69A      0.204308  
      70A      0.205332    71A      0.205667    72A      0.206680  
      73A      0.239765    74A      0.240805    75A      0.243157  
      76A      0.244186    77A      0.244458    78A      0.245499  
      79A      0.270637    80A      0.271655    81A      0.278620  
      82A      0.279653    83A      0.300492    84A      0.301513  
      85A      0.324693    86A      0.325723    87A      0.351907  
      88A      0.352936    89A      0.354902    90A      0.355942  
      91A      0.374464    92A      0.375499    93A      0.395619  
      94A      0.396670    95A      0.402285    96A      0.403317  
      97A      0.414579    98A      0.415629    99A      0.431663  
     100A      0.432688   101A      0.442900   102A      0.443907  
     103A      0.452915   104A      0.453944   105A      0.459364  
     106A      0.460386   107A      0.478194   108A      0.479221  
     109A      0.498080   110A      0.499104   111A      0.508227  
     112A      0.509249   113A      0.521472   114A      0.522517  
     115A      0.541110   116A      0.542134   117A      0.573968  
     118A      0.574997   119A      0.585862   120A      0.586897  
     121A      0.590090   122A      0.591122   123A      0.601964  
     124A      0.602999   125A      0.620502   126A      0.621531  
     127A      0.645659   128A      0.646688   129A      0.654859  
     130A      0.655901   131A      0.675709   132A      0.676735  
     133A      0.697586   134A      0.698613   135A      0.699933  
     136A      0.700964   137A      0.721208   138A      0.722232  
     139A      0.724666   140A      0.725707   141A      0.747249  
     142A      0.748277   143A      0.758133   144A      0.759165  
     145A      0.772858   146A      0.773885   147A      0.781013  
     148A      0.782039   149A      0.828026   150A      0.829047  
     151A      0.837769   152A      0.838802   153A      0.847941  
     154A      0.848972   155A      0.880944   156A      0.881974  
     157A      0.888319   158A      0.889355   159A      0.906489  
     160A      0.907515   161A      0.924345   162A      0.925374  
     163A      0.942117   164A      0.943146   165A      0.977764  
     166A      0.978788   167A      0.984391   168A      0.985420  
     169A      1.010659   170A      1.011683   171A      1.046120  
     172A      1.047145   173A      1.066050   174A      1.067084  
     175A      1.100383   176A      1.101410   177A      1.127593  
     178A      1.128628   179A      1.133728   180A      1.134758  
     181A      1.149783   182A      1.150816   183A      1.174707  
     184A      1.175733   185A      1.220072   186A      1.221099  
     187A      1.269092   188A      1.270128   189A      1.302869  
     190A      1.303893   191A      1.310926   192A      1.311951  
     193A      1.365332   194A      1.366360   195A      1.400589  
     196A      1.401619   197A      1.474212   198A      1.475239  
     199A      1.511560   200A      1.512586   201A      1.525673  
     202A      1.526702   203A      1.560529   204A      1.561555  
     205A      1.590435   206A      1.591470   207A      1.608213  
     208A      1.609243   209A      1.636989   210A      1.638022  
     211A      1.669021   212A      1.670052   213A      1.703174  
     214A      1.704205   215A      1.723487   216A      1.724514  
     217A      1.748750   218A      1.749776   219A      1.763914  
     220A      1.764944   221A      1.804584   222A      1.805610  
     223A      1.875180   224A      1.876216   225A      1.931927  
     226A      1.932955   227A      1.943111   228A      1.944144  
     229A      1.987606   230A      1.988634   231A      2.020979  
     232A      2.022006   233A      2.057152   234A      2.058182  
     235A      2.088381   236A      2.089411   237A      2.144223  
     238A      2.145252   239A      2.189551   240A      2.190584  
     241A      2.200369   242A      2.201398   243A      2.229992  
     244A      2.231021   245A      2.275367   246A      2.276394  
     247A      2.307178   248A      2.308207   249A      2.360257  
     250A      2.361283   251A      2.388664   252A      2.389694  
     253A      2.393350   254A      2.394375   255A      2.434772  
     256A      2.435797   257A      2.464492   258A      2.465518  
     259A      2.531333   260A      2.532362   261A      2.569766  
     262A      2.570794   263A      2.584245   264A      2.585272  
     265A      2.642496   266A      2.643526   267A      2.732570  
     268A      2.733602   269A      2.826369   270A      2.827395  
     271A      2.834283   272A      2.835311   273A      2.901116  
     274A      2.902143   275A      2.918129   276A      2.919157  
     277A      2.998696   278A      2.999727   279A      3.054858  
     280A      3.055888   281A      3.091883   282A      3.092908  
     283A      3.122267   284A      3.123296   285A      3.188462  
     286A      3.189487   287A      3.221547   288A      3.222577  
     289A      3.297392   290A      3.298416   291A      3.379784  
     292A      3.380818   293A      3.520257   294A      3.521284  
     295A      3.686104   296A      3.687131   297A      3.888854  
     298A      3.889879   299A      4.208953   300A      4.209978  
     301A      4.462781   302A      4.463811  

    Final Occupation by Irrep:
              A 
    DOCC [    36 ]

  @DF-RHF Final Energy:  -449.52469792042461

   => Energetics <=

    Nuclear Repulsion Energy =            364.8439590444464784
    One-Electron Energy =               -1330.1938823047189544
    Two-Electron Energy =                 515.8252253398478615
    Total Energy =                       -449.5246979204246145

Computation Completed


Properties will be evaluated at   0.000000,   0.000000,   0.000000 [a0]

Properties computed using the SCF density matrix

  Nuclear Dipole Moment: [e a0]
     X:  -789.1566      Y:   647.3527      Z:   507.0807

  Electronic Dipole Moment: [e a0]
     X:   788.3490      Y:  -646.0881      Z:  -505.9211

  Dipole Moment: [e a0]
     X:    -0.8076      Y:     1.2646      Z:     1.1596     Total:     1.8963

  Dipole Moment: [D]
     X:    -2.0526      Y:     3.2143      Z:     2.9474     Total:     4.8200


*** tstop() called on ds1 at Mon Oct  4 13:28:41 2021
Module time:
	user time   =      22.52 seconds =       0.38 minutes
	system time =       0.57 seconds =       0.01 minutes
	total time  =          5 seconds =       0.08 minutes
Total time:
	user time   =      22.52 seconds =       0.38 minutes
	system time =       0.57 seconds =       0.01 minutes
	total time  =          5 seconds =       0.08 minutes

  //>>>>>>>>>>>>>>>>>>>>>>>>>>>>>>>>>>>//
  //            Monomer A HF           //
  //<<<<<<<<<<<<<<<<<<<<<<<<<<<<<<<<<<<//


*** tstart() called on ds1
*** at Mon Oct  4 13:28:41 2021

   => Loading Basis Set <=

    Name: AUG-CC-PVDZ
    Role: ORBITAL
    Keyword: BASIS
    atoms 1-2, 10-11 entry N          line   218 file /theoryfs2/ds/csargent/miniconda3/envs/cle/share/psi4/basis/aug-cc-pvdz.gbs 
    atoms 3-6, 12-15 entry H          line    40 file /theoryfs2/ds/csargent/miniconda3/envs/cle/share/psi4/basis/aug-cc-pvdz.gbs 
    atoms 7-9, 16-18 entry C          line   182 file /theoryfs2/ds/csargent/miniconda3/envs/cle/share/psi4/basis/aug-cc-pvdz.gbs 


         ---------------------------------------------------------
                                   SCF
               by Justin Turney, Rob Parrish, Andy Simmonett
                          and Daniel G. A. Smith
                              RHF Reference
                        6 Threads,   6675 MiB Core
         ---------------------------------------------------------

  ==> Geometry <==

    Molecular point group: c1
    Full point group: C1

    Geometry (in Bohr), charge = 0, multiplicity = 1:

       Center              X                  Y                   Z               Mass       
    ------------   -----------------  -----------------  -----------------  -----------------
         N            6.279812100000    -4.253033720000     0.193138650000    14.003074004430
         N            6.068707770000    -2.281256970000     1.805443170000    14.003074004430
         H            3.668711560000    -5.646289410000    -1.966840010000     1.007825032230
         H            0.690345210000    -2.375456940000    -0.428642360000     1.007825032230
         H            3.359174420000     0.176506010000     3.092650170000     1.007825032230
         H            7.352667820000    -1.994613110000     2.906807020000     1.007825032230
         C            3.779525860000    -1.215084530000     1.768581720000    12.000000000000
         C            2.382429980000    -2.555055380000     0.046076810000    12.000000000000
         C            4.017714680000    -4.384104900000    -0.887618630000    12.000000000000
      Gh(N)         -24.673901840000    19.534838750000    12.992253690000    14.003074004430
      Gh(N)         -24.885006170000    21.506615500000    14.604558220000    14.003074004430
      Gh(H)         -27.285002380000    18.141583060000    10.832275040000     1.007825032230
      Gh(H)         -30.263368730000    21.412415520000    12.370472680000     1.007825032230
      Gh(H)         -27.594539510000    23.964378480000    15.891765220000     1.007825032230
      Gh(H)         -23.601046110000    21.793259360000    15.705922070000     1.007825032230
      Gh(C)         -27.174188080000    22.572787940000    14.567696770000    12.000000000000
      Gh(C)         -28.571283960000    21.232817090000    12.845191860000    12.000000000000
      Gh(C)         -26.935999250000    19.403767570000    11.911496420000    12.000000000000

  Running in c1 symmetry.

  Rotational constants: A =      0.07222  B =      0.00066  C =      0.00065 [cm^-1]
  Rotational constants: A =   2164.95230  B =     19.77389  C =     19.62872 [MHz]
  Nuclear repulsion =  166.624056450327203

  Charge       = 0
  Multiplicity = 1
  Electrons    = 36
  Nalpha       = 18
  Nbeta        = 18

  ==> Algorithm <==

  SCF Algorithm Type is DF.
  DIIS enabled.
  MOM disabled.
  Fractional occupation disabled.
  Guess Type is SAD.
  Energy threshold   = 1.00e-10
  Density threshold  = 1.00e-10
  Integral threshold = 1.00e-12

  ==> Primary Basis <==

  Basis Set: AUG-CC-PVDZ
    Blend: AUG-CC-PVDZ
    Number of shells: 130
    Number of basis functions: 302
    Number of Cartesian functions: 322
    Spherical Harmonics?: true
    Max angular momentum: 2

   => Loading Basis Set <=

    Name: (AUG-CC-PVDZ AUX)
    Role: JKFIT
    Keyword: DF_BASIS_SCF
    atoms 1-2, 10-11 entry N          line   212 file /theoryfs2/ds/csargent/miniconda3/envs/cle/share/psi4/basis/aug-cc-pvdz-jkfit.gbs 
    atoms 3-6, 12-15 entry H          line    70 file /theoryfs2/ds/csargent/miniconda3/envs/cle/share/psi4/basis/aug-cc-pvdz-jkfit.gbs 
    atoms 7-9, 16-18 entry C          line   154 file /theoryfs2/ds/csargent/miniconda3/envs/cle/share/psi4/basis/aug-cc-pvdz-jkfit.gbs 

  ==> Integral Setup <==

  ==> DiskDFJK: Density-Fitted J/K Matrices <==

    J tasked:                  Yes
    K tasked:                  Yes
    wK tasked:                  No
    OpenMP threads:              6
    Integrals threads:           6
    Memory [MiB]:             5006
    Algorithm:                Core
    Integral Cache:           LOAD
    Schwarz Cutoff:          1E-12
    Fitting Condition:       1E-10

   => Auxiliary Basis Set <=

  Basis Set: (AUG-CC-PVDZ AUX)
    Blend: AUG-CC-PVDZ-JKFIT
    Number of shells: 376
    Number of basis functions: 1116
    Number of Cartesian functions: 1290
    Spherical Harmonics?: true
    Max angular momentum: 3

  Minimum eigenvalue in the overlap matrix is 3.0333777181E-05.
  Reciprocal condition number of the overlap matrix is 2.4874860285E-06.
    Using symmetric orthogonalization.

  ==> Pre-Iterations <==

  SCF Guess: Superposition of Atomic Densities via on-the-fly atomic UHF (no occupation information).

   -------------------------
    Irrep   Nso     Nmo    
   -------------------------
     A        302     302 
   -------------------------
    Total     302     302
   -------------------------

  ==> Iterations <==

                           Total Energy        Delta E     RMS |[F,P]|

   @DF-RHF iter SAD:  -224.72194801253937   -2.24722e+02   0.00000e+00 
   @DF-RHF iter   1:  -224.63549169928257    8.64563e-02   1.50472e-03 DIIS
   @DF-RHF iter   2:  -224.73984613180420   -1.04354e-01   6.88462e-04 DIIS
   @DF-RHF iter   3:  -224.76075487069352   -2.09087e-02   1.48626e-04 DIIS
   @DF-RHF iter   4:  -224.76213931446250   -1.38444e-03   6.05310e-05 DIIS
   @DF-RHF iter   5:  -224.76231766922024   -1.78355e-04   1.19893e-05 DIIS
   @DF-RHF iter   6:  -224.76233462669398   -1.69575e-05   4.96772e-06 DIIS
   @DF-RHF iter   7:  -224.76233858273139   -3.95604e-06   2.18806e-06 DIIS
   @DF-RHF iter   8:  -224.76233934347363   -7.60742e-07   1.01700e-06 DIIS
   @DF-RHF iter   9:  -224.76233951111590   -1.67642e-07   2.83302e-07 DIIS
   @DF-RHF iter  10:  -224.76233951993663   -8.82073e-09   8.55547e-08 DIIS
   @DF-RHF iter  11:  -224.76233952062617   -6.89539e-10   1.99714e-08 DIIS
   @DF-RHF iter  12:  -224.76233952067244   -4.62705e-11   5.81092e-09 DIIS
   @DF-RHF iter  13:  -224.76233952067670   -4.26326e-12   2.83097e-09 DIIS
   @DF-RHF iter  14:  -224.76233952067764   -9.37916e-13   9.75191e-10 DIIS
   @DF-RHF iter  15:  -224.76233952067807   -4.26326e-13   4.15548e-10 DIIS
   @DF-RHF iter  16:  -224.76233952067764    4.26326e-13   1.25997e-10 DIIS
   @DF-RHF iter  17:  -224.76233952067736    2.84217e-13   4.47786e-11 DIIS
  Energy and wave function converged.


  ==> Post-Iterations <==

    Orbital Energies [Eh]
    ---------------------

    Doubly Occupied:                                                      

       1A    -15.636223     2A    -15.592313     3A    -11.279894  
       4A    -11.237784     5A    -11.209891     6A     -1.386922  
       7A     -1.121901     8A     -1.066898     9A     -0.872768  
      10A     -0.837061    11A     -0.757292    12A     -0.645746  
      13A     -0.620834    14A     -0.609140    15A     -0.583920  
      16A     -0.461404    17A     -0.370721    18A     -0.346048  

    Virtual:                                                              

      19A      0.022262    20A      0.030764    21A      0.039615  
      22A      0.042368    23A      0.043720    24A      0.049159  
      25A      0.063520    26A      0.065458    27A      0.083562  
      28A      0.090310    29A      0.098511    30A      0.100998  
      31A      0.104029    32A      0.117179    33A      0.117948  
      34A      0.125439    35A      0.126270    36A      0.127874  
      37A      0.132960    38A      0.133069    39A      0.133732  
      40A      0.138403    41A      0.141490    42A      0.156889  
      43A      0.158146    44A      0.164592    45A      0.165547  
      46A      0.171075    47A      0.178408    48A      0.178771  
      49A      0.195052    50A      0.196042    51A      0.201036  
      52A      0.204793    53A      0.206162    54A      0.222477  
      55A      0.224713    56A      0.227827    57A      0.235133  
      58A      0.240236    59A      0.243626    60A      0.244965  
      61A      0.263604    62A      0.270569    63A      0.271127  
      64A      0.279080    65A      0.301010    66A      0.321481  
      67A      0.325148    68A      0.339687    69A      0.352358  
      70A      0.355357    71A      0.366116    72A      0.372499  
      73A      0.374907    74A      0.383329    75A      0.396061  
      76A      0.402741    77A      0.414998    78A      0.427075  
      79A      0.431665    80A      0.432132    81A      0.440809  
      82A      0.441962    83A      0.443385    84A      0.453393  
      85A      0.455584    86A      0.457021    87A      0.459816  
      88A      0.461467    89A      0.478655    90A      0.498543  
      91A      0.508690    92A      0.509316    93A      0.519007  
      94A      0.521917    95A      0.532719    96A      0.537644  
      97A      0.541560    98A      0.558922    99A      0.568394  
     100A      0.571454   101A      0.574432   102A      0.586318  
     103A      0.590538   104A      0.594784   105A      0.602413  
     106A      0.612973   107A      0.620831   108A      0.620953  
     109A      0.633125   110A      0.646110   111A      0.655295  
     112A      0.676162   113A      0.690442   114A      0.698041  
     115A      0.700391   116A      0.707399   117A      0.719056  
     118A      0.721667   119A      0.725115   120A      0.735291  
     121A      0.744976   122A      0.747709   123A      0.758592  
     124A      0.773318   125A      0.781481   126A      0.789282  
     127A      0.797718   128A      0.814062   129A      0.820525  
     130A      0.828504   131A      0.838230   132A      0.848394  
     133A      0.851570   134A      0.854721   135A      0.870640  
     136A      0.880693   137A      0.881395   138A      0.888767  
     139A      0.895299   140A      0.906950   141A      0.915760  
     142A      0.924815   143A      0.942582   144A      0.951697  
     145A      0.978222   146A      0.984850   147A      0.996795  
     148A      1.011149   149A      1.023818   150A      1.029857  
     151A      1.046606   152A      1.051281   153A      1.066503  
     154A      1.070805   155A      1.080644   156A      1.100852  
     157A      1.107819   158A      1.128058   159A      1.134196  
     160A      1.150235   161A      1.158441   162A      1.165941  
     163A      1.175168   164A      1.184646   165A      1.220548  
     166A      1.221363   167A      1.236699   168A      1.267653  
     169A      1.269556   170A      1.293378   171A      1.303342  
     172A      1.311399   173A      1.314816   174A      1.340365  
     175A      1.365807   176A      1.381513   177A      1.401043  
     178A      1.434658   179A      1.444391   180A      1.474691  
     181A      1.492907   182A      1.506699   183A      1.512027  
     184A      1.526129   185A      1.560989   186A      1.590882  
     187A      1.608669   188A      1.637437   189A      1.669472  
     190A      1.676389   191A      1.688564   192A      1.703634  
     193A      1.723950   194A      1.749215   195A      1.764373  
     196A      1.805048   197A      1.875632   198A      1.932390  
     199A      1.943558   200A      1.988067   201A      2.021445  
     202A      2.040804   203A      2.057611   204A      2.088839  
     205A      2.108816   206A      2.134567   207A      2.144687  
     208A      2.167874   209A      2.190005   210A      2.200827  
     211A      2.216371   212A      2.230457   213A      2.233596  
     214A      2.261596   215A      2.275825   216A      2.277479  
     217A      2.288997   218A      2.307640   219A      2.335434  
     220A      2.360716   221A      2.380294   222A      2.389130  
     223A      2.393822   224A      2.394271   225A      2.435246  
     226A      2.443616   227A      2.464967   228A      2.478060  
     229A      2.499646   230A      2.513296   231A      2.531798  
     232A      2.548564   233A      2.570232   234A      2.584716  
     235A      2.631057   236A      2.642961   237A      2.667240  
     238A      2.702731   239A      2.718616   240A      2.733029  
     241A      2.826838   242A      2.827636   243A      2.834751  
     244A      2.869509   245A      2.889764   246A      2.901587  
     247A      2.918598   248A      2.944863   249A      2.999157  
     250A      3.027792   251A      3.055324   252A      3.089548  
     253A      3.092358   254A      3.122730   255A      3.139763  
     256A      3.181686   257A      3.188930   258A      3.222008  
     259A      3.253841   260A      3.288886   261A      3.297865  
     262A      3.355463   263A      3.380235   264A      3.395294  
     265A      3.423191   266A      3.448011   267A      3.486881  
     268A      3.497249   269A      3.520727   270A      3.633243  
     271A      3.666655   272A      3.686563   273A      3.735337  
     274A      3.769775   275A      3.850853   276A      3.889327  
     277A      3.964129   278A      4.035195   279A      4.094460  
     280A      4.209428   281A      4.243799   282A      4.448138  
     283A      4.463235   284A      4.658102   285A      4.707742  
     286A      4.749668   287A      4.810494   288A      4.994586  
     289A      5.076507   290A      5.241171   291A      5.530953  
     292A      5.668651   293A      5.826570   294A      6.106405  
     295A      6.318081   296A      6.708113   297A      6.967573  
     298A     18.110936   299A     18.647599   300A     19.373348  
     301A     25.245234   302A     25.704643  

    Final Occupation by Irrep:
              A 
    DOCC [    18 ]

  @DF-RHF Final Energy:  -224.76233952067736

   => Energetics <=

    Nuclear Repulsion Energy =            166.6240564503272026
    One-Electron Energy =                -633.4992733862994783
    Two-Electron Energy =                 242.1128774152949177
    Total Energy =                       -224.7623395206773580

Computation Completed


Properties will be evaluated at   0.000000,   0.000000,   0.000000 [a0]

Properties computed using the SCF density matrix

  Nuclear Dipole Moment: [e a0]
     X:   162.5886      Y:  -104.5054      Z:    23.1563

  Electronic Dipole Moment: [e a0]
     X:  -162.9913      Y:   105.1370      Z:   -22.5767

  Dipole Moment: [e a0]
     X:    -0.4027      Y:     0.6317      Z:     0.5796     Total:     0.9472

  Dipole Moment: [D]
     X:    -1.0235      Y:     1.6055      Z:     1.4733     Total:     2.4075


*** tstop() called on ds1 at Mon Oct  4 13:28:45 2021
Module time:
	user time   =      15.84 seconds =       0.26 minutes
	system time =       0.33 seconds =       0.01 minutes
	total time  =          4 seconds =       0.07 minutes
Total time:
	user time   =      38.50 seconds =       0.64 minutes
	system time =       0.91 seconds =       0.02 minutes
	total time  =          9 seconds =       0.15 minutes

  //>>>>>>>>>>>>>>>>>>>>>>>>>>>>>>>>>>>//
  //            Monomer B HF           //
  //<<<<<<<<<<<<<<<<<<<<<<<<<<<<<<<<<<<//


*** tstart() called on ds1
*** at Mon Oct  4 13:28:45 2021

   => Loading Basis Set <=

    Name: AUG-CC-PVDZ
    Role: ORBITAL
    Keyword: BASIS
    atoms 1-2, 10-11 entry N          line   218 file /theoryfs2/ds/csargent/miniconda3/envs/cle/share/psi4/basis/aug-cc-pvdz.gbs 
    atoms 3-6, 12-15 entry H          line    40 file /theoryfs2/ds/csargent/miniconda3/envs/cle/share/psi4/basis/aug-cc-pvdz.gbs 
    atoms 7-9, 16-18 entry C          line   182 file /theoryfs2/ds/csargent/miniconda3/envs/cle/share/psi4/basis/aug-cc-pvdz.gbs 


         ---------------------------------------------------------
                                   SCF
               by Justin Turney, Rob Parrish, Andy Simmonett
                          and Daniel G. A. Smith
                              RHF Reference
                        6 Threads,   6675 MiB Core
         ---------------------------------------------------------

  ==> Geometry <==

    Molecular point group: c1
    Full point group: C1

    Geometry (in Bohr), charge = 0, multiplicity = 1:

       Center              X                  Y                   Z               Mass       
    ------------   -----------------  -----------------  -----------------  -----------------
      Gh(N)           6.279812100000    -4.253033720000     0.193138650000    14.003074004430
      Gh(N)           6.068707770000    -2.281256970000     1.805443170000    14.003074004430
      Gh(H)           3.668711560000    -5.646289410000    -1.966840010000     1.007825032230
      Gh(H)           0.690345210000    -2.375456940000    -0.428642360000     1.007825032230
      Gh(H)           3.359174420000     0.176506010000     3.092650170000     1.007825032230
      Gh(H)           7.352667820000    -1.994613110000     2.906807020000     1.007825032230
      Gh(C)           3.779525860000    -1.215084530000     1.768581720000    12.000000000000
      Gh(C)           2.382429980000    -2.555055380000     0.046076810000    12.000000000000
      Gh(C)           4.017714680000    -4.384104900000    -0.887618630000    12.000000000000
         N          -24.673901840000    19.534838750000    12.992253690000    14.003074004430
         N          -24.885006170000    21.506615500000    14.604558220000    14.003074004430
         H          -27.285002380000    18.141583060000    10.832275040000     1.007825032230
         H          -30.263368730000    21.412415520000    12.370472680000     1.007825032230
         H          -27.594539510000    23.964378480000    15.891765220000     1.007825032230
         H          -23.601046110000    21.793259360000    15.705922070000     1.007825032230
         C          -27.174188080000    22.572787940000    14.567696770000    12.000000000000
         C          -28.571283960000    21.232817090000    12.845191860000    12.000000000000
         C          -26.935999250000    19.403767570000    11.911496420000    12.000000000000

  Running in c1 symmetry.

  Rotational constants: A =      0.07222  B =      0.00066  C =      0.00065 [cm^-1]
  Rotational constants: A =   2164.95230  B =     19.77389  C =     19.62872 [MHz]
  Nuclear repulsion =  166.624056431814751

  Charge       = 0
  Multiplicity = 1
  Electrons    = 36
  Nalpha       = 18
  Nbeta        = 18

  ==> Algorithm <==

  SCF Algorithm Type is DF.
  DIIS enabled.
  MOM disabled.
  Fractional occupation disabled.
  Guess Type is SAD.
  Energy threshold   = 1.00e-10
  Density threshold  = 1.00e-10
  Integral threshold = 1.00e-12

  ==> Primary Basis <==

  Basis Set: AUG-CC-PVDZ
    Blend: AUG-CC-PVDZ
    Number of shells: 130
    Number of basis functions: 302
    Number of Cartesian functions: 322
    Spherical Harmonics?: true
    Max angular momentum: 2

   => Loading Basis Set <=

    Name: (AUG-CC-PVDZ AUX)
    Role: JKFIT
    Keyword: DF_BASIS_SCF
    atoms 1-2, 10-11 entry N          line   212 file /theoryfs2/ds/csargent/miniconda3/envs/cle/share/psi4/basis/aug-cc-pvdz-jkfit.gbs 
    atoms 3-6, 12-15 entry H          line    70 file /theoryfs2/ds/csargent/miniconda3/envs/cle/share/psi4/basis/aug-cc-pvdz-jkfit.gbs 
    atoms 7-9, 16-18 entry C          line   154 file /theoryfs2/ds/csargent/miniconda3/envs/cle/share/psi4/basis/aug-cc-pvdz-jkfit.gbs 

  ==> Integral Setup <==

  ==> DiskDFJK: Density-Fitted J/K Matrices <==

    J tasked:                  Yes
    K tasked:                  Yes
    wK tasked:                  No
    OpenMP threads:              6
    Integrals threads:           6
    Memory [MiB]:             5006
    Algorithm:                Core
    Integral Cache:           LOAD
    Schwarz Cutoff:          1E-12
    Fitting Condition:       1E-10

   => Auxiliary Basis Set <=

  Basis Set: (AUG-CC-PVDZ AUX)
    Blend: AUG-CC-PVDZ-JKFIT
    Number of shells: 376
    Number of basis functions: 1116
    Number of Cartesian functions: 1290
    Spherical Harmonics?: true
    Max angular momentum: 3

  Minimum eigenvalue in the overlap matrix is 3.0333777181E-05.
  Reciprocal condition number of the overlap matrix is 2.4874860285E-06.
    Using symmetric orthogonalization.

  ==> Pre-Iterations <==

  SCF Guess: Superposition of Atomic Densities via on-the-fly atomic UHF (no occupation information).

   -------------------------
    Irrep   Nso     Nmo    
   -------------------------
     A        302     302 
   -------------------------
    Total     302     302
   -------------------------

  ==> Iterations <==

                           Total Energy        Delta E     RMS |[F,P]|

   @DF-RHF iter SAD:  -224.72194801196787   -2.24722e+02   0.00000e+00 
   @DF-RHF iter   1:  -224.63549170132674    8.64563e-02   1.50472e-03 DIIS
   @DF-RHF iter   2:  -224.73984613421348   -1.04354e-01   6.88462e-04 DIIS
   @DF-RHF iter   3:  -224.76075487320907   -2.09087e-02   1.48626e-04 DIIS
   @DF-RHF iter   4:  -224.76213931699840   -1.38444e-03   6.05310e-05 DIIS
   @DF-RHF iter   5:  -224.76231767175994   -1.78355e-04   1.19893e-05 DIIS
   @DF-RHF iter   6:  -224.76233462923452   -1.69575e-05   4.96772e-06 DIIS
   @DF-RHF iter   7:  -224.76233858527246   -3.95604e-06   2.18806e-06 DIIS
   @DF-RHF iter   8:  -224.76233934601504   -7.60743e-07   1.01700e-06 DIIS
   @DF-RHF iter   9:  -224.76233951365703   -1.67642e-07   2.83302e-07 DIIS
   @DF-RHF iter  10:  -224.76233952247748   -8.82045e-09   8.55547e-08 DIIS
   @DF-RHF iter  11:  -224.76233952316741   -6.89937e-10   1.99714e-08 DIIS
   @DF-RHF iter  12:  -224.76233952321314   -4.57305e-11   5.81092e-09 DIIS
   @DF-RHF iter  13:  -224.76233952321749   -4.34852e-12   2.83097e-09 DIIS
   @DF-RHF iter  14:  -224.76233952321837   -8.81073e-13   9.75191e-10 DIIS
   @DF-RHF iter  15:  -224.76233952321883   -4.54747e-13   4.15548e-10 DIIS
   @DF-RHF iter  16:  -224.76233952321877    5.68434e-14   1.25998e-10 DIIS
   @DF-RHF iter  17:  -224.76233952321908   -3.12639e-13   4.47783e-11 DIIS
  Energy and wave function converged.


  ==> Post-Iterations <==

    Orbital Energies [Eh]
    ---------------------

    Doubly Occupied:                                                      

       1A    -15.636223     2A    -15.592313     3A    -11.279894  
       4A    -11.237784     5A    -11.209891     6A     -1.386922  
       7A     -1.121901     8A     -1.066898     9A     -0.872768  
      10A     -0.837061    11A     -0.757292    12A     -0.645746  
      13A     -0.620834    14A     -0.609140    15A     -0.583920  
      16A     -0.461404    17A     -0.370721    18A     -0.346048  

    Virtual:                                                              

      19A      0.023290    20A      0.030764    21A      0.040627  
      22A      0.042368    23A      0.044791    24A      0.049159  
      25A      0.063520    26A      0.066515    27A      0.084572  
      28A      0.091299    29A      0.099578    30A      0.100998  
      31A      0.104029    32A      0.117179    33A      0.118961  
      34A      0.126270    35A      0.126451    36A      0.128943  
      37A      0.133069    38A      0.133979    39A      0.134770  
      40A      0.138403    41A      0.141490    42A      0.156889  
      43A      0.159193    44A      0.164592    45A      0.166593  
      46A      0.171075    47A      0.178408    48A      0.179814  
      49A      0.196042    50A      0.196065    51A      0.202064  
      52A      0.204793    53A      0.206162    54A      0.223495  
      55A      0.225753    56A      0.228835    57A      0.236147  
      58A      0.240236    59A      0.243626    60A      0.244965  
      61A      0.264641    62A      0.271127    63A      0.271613  
      64A      0.279080    65A      0.301010    66A      0.322495  
      67A      0.325148    68A      0.340730    69A      0.352358  
      70A      0.355357    71A      0.367143    72A      0.373525  
      73A      0.374907    74A      0.384353    75A      0.396061  
      76A      0.402741    77A      0.414998    78A      0.428105  
      79A      0.432132    80A      0.432692    81A      0.441851  
      82A      0.443001    83A      0.443385    84A      0.453393  
      85A      0.456611    86A      0.458045    87A      0.459816  
      88A      0.462488    89A      0.478655    90A      0.498543  
      91A      0.508690    92A      0.510358    93A      0.520022  
      94A      0.521917    95A      0.533742    96A      0.538676  
      97A      0.541560    98A      0.559948    99A      0.569427  
     100A      0.572486   101A      0.574432   102A      0.586318  
     103A      0.590538   104A      0.595812   105A      0.602413  
     106A      0.614000   107A      0.620953   108A      0.621861  
     109A      0.634152   110A      0.646110   111A      0.655295  
     112A      0.676162   113A      0.691476   114A      0.698041  
     115A      0.700391   116A      0.708416   117A      0.720090  
     118A      0.721667   119A      0.725115   120A      0.736328  
     121A      0.745993   122A      0.747709   123A      0.758592  
     124A      0.773318   125A      0.781481   126A      0.790296  
     127A      0.798748   128A      0.815094   129A      0.821553  
     130A      0.828504   131A      0.838230   132A      0.848394  
     133A      0.852605   134A      0.855760   135A      0.871677  
     136A      0.881395   137A      0.881723   138A      0.888767  
     139A      0.896322   140A      0.906950   141A      0.916789  
     142A      0.924815   143A      0.942582   144A      0.952717  
     145A      0.978222   146A      0.984850   147A      0.997825  
     148A      1.011149   149A      1.024840   150A      1.030875  
     151A      1.046606   152A      1.052308   153A      1.066503  
     154A      1.071849   155A      1.081674   156A      1.100852  
     157A      1.108842   158A      1.128058   159A      1.134196  
     160A      1.150235   161A      1.159461   162A      1.166959  
     163A      1.175168   164A      1.185674   165A      1.220548  
     166A      1.222382   167A      1.237725   168A      1.268677  
     169A      1.269556   170A      1.294395   171A      1.303342  
     172A      1.311399   173A      1.315846   174A      1.341392  
     175A      1.365807   176A      1.382535   177A      1.401043  
     178A      1.435680   179A      1.445415   180A      1.474691  
     181A      1.493938   182A      1.507715   183A      1.512027  
     184A      1.526129   185A      1.560989   186A      1.590882  
     187A      1.608669   188A      1.637437   189A      1.669472  
     190A      1.677415   191A      1.689585   192A      1.703634  
     193A      1.723950   194A      1.749215   195A      1.764373  
     196A      1.805048   197A      1.875632   198A      1.932390  
     199A      1.943558   200A      1.988067   201A      2.021445  
     202A      2.041832   203A      2.057611   204A      2.088839  
     205A      2.109854   206A      2.135590   207A      2.144687  
     208A      2.168914   209A      2.190005   210A      2.200827  
     211A      2.217401   212A      2.230457   213A      2.234628  
     214A      2.262624   215A      2.275825   216A      2.278498  
     217A      2.290026   218A      2.307640   219A      2.336466  
     220A      2.360716   221A      2.381310   222A      2.389130  
     223A      2.393822   224A      2.395304   225A      2.435246  
     226A      2.444650   227A      2.464967   228A      2.479090  
     229A      2.500681   230A      2.514312   231A      2.531798  
     232A      2.549602   233A      2.570232   234A      2.584716  
     235A      2.632081   236A      2.642961   237A      2.668268  
     238A      2.703758   239A      2.719645   240A      2.733029  
     241A      2.826838   242A      2.828661   243A      2.834751  
     244A      2.870538   245A      2.890795   246A      2.901587  
     247A      2.918598   248A      2.945885   249A      2.999157  
     250A      3.028822   251A      3.055324   252A      3.090575  
     253A      3.092358   254A      3.122730   255A      3.140793  
     256A      3.182710   257A      3.188930   258A      3.222008  
     259A      3.254867   260A      3.289904   261A      3.297865  
     262A      3.356486   263A      3.380235   264A      3.396315  
     265A      3.424213   266A      3.449030   267A      3.487909  
     268A      3.498279   269A      3.520727   270A      3.634261  
     271A      3.667677   272A      3.686563   273A      3.736358  
     274A      3.770796   275A      3.851875   276A      3.889327  
     277A      3.965157   278A      4.036213   279A      4.095483  
     280A      4.209428   281A      4.244823   282A      4.449160  
     283A      4.463235   284A      4.659119   285A      4.708763  
     286A      4.750696   287A      4.811516   288A      4.995610  
     289A      5.077529   290A      5.242201   291A      5.531976  
     292A      5.669672   293A      5.827600   294A      6.107425  
     295A      6.319112   296A      6.709132   297A      6.968588  
     298A     18.111963   299A     18.648622   300A     19.374381  
     301A     25.246252   302A     25.705662  

    Final Occupation by Irrep:
              A 
    DOCC [    18 ]

  @DF-RHF Final Energy:  -224.76233952321908

   => Energetics <=

    Nuclear Repulsion Energy =            166.6240564318147506
    One-Electron Energy =                -633.4992733609598190
    Two-Electron Energy =                 242.1128774059259570
    Total Energy =                       -224.7623395232190830

Computation Completed


Properties will be evaluated at   0.000000,   0.000000,   0.000000 [a0]

Properties computed using the SCF density matrix

  Nuclear Dipole Moment: [e a0]
     X:  -951.7451      Y:   751.8581      Z:   483.9244

  Electronic Dipole Moment: [e a0]
     X:   951.3424      Y:  -751.2264      Z:  -483.3448

  Dipole Moment: [e a0]
     X:    -0.4027      Y:     0.6317      Z:     0.5796     Total:     0.9472

  Dipole Moment: [D]
     X:    -1.0235      Y:     1.6055      Z:     1.4733     Total:     2.4075


*** tstop() called on ds1 at Mon Oct  4 13:28:48 2021
Module time:
	user time   =      15.77 seconds =       0.26 minutes
	system time =       0.37 seconds =       0.01 minutes
	total time  =          3 seconds =       0.05 minutes
Total time:
	user time   =      54.44 seconds =       0.91 minutes
	system time =       1.28 seconds =       0.02 minutes
	total time  =         12 seconds =       0.20 minutes
  Constructing Basis Sets for SAPT...

   => Loading Basis Set <=

    Name: (AUG-CC-PVDZ AUX)
    Role: RIFIT
    Keyword: DF_BASIS_SAPT
    atoms 1-2, 10-11 entry N          line   158 file /theoryfs2/ds/csargent/miniconda3/envs/cle/share/psi4/basis/aug-cc-pvdz-ri.gbs 
    atoms 3-6, 12-15 entry H          line    30 file /theoryfs2/ds/csargent/miniconda3/envs/cle/share/psi4/basis/aug-cc-pvdz-ri.gbs 
    atoms 7-9, 16-18 entry C          line   112 file /theoryfs2/ds/csargent/miniconda3/envs/cle/share/psi4/basis/aug-cc-pvdz-ri.gbs 


  //>>>>>>>>>>>>>>>>>>>>>>>>>>>>>>>>>>>//
  //               SAPT0               //
  //<<<<<<<<<<<<<<<<<<<<<<<<<<<<<<<<<<<//


*** tstart() called on ds1
*** at Mon Oct  4 13:28:48 2021

        SAPT0  
    Ed Hohenstein
     6 June 2009

      Orbital Information
  --------------------------
    NSO        =       302
    NMO        =       302
    NRI        =       904
    NOCC A     =        18
    NOCC B     =        18
    FOCC A     =         5
    FOCC B     =         5
    NVIR A     =       284
    NVIR B     =       284

    Elst10,r            =    -0.000018909839 [Eh]
    Exch10              =     0.000000000000 [Eh]
    Exch10 (S^2)        =     0.000000000000 [Eh]

    Iter     Energy [mEh]          dE [mEh]         Residual      Time [s]
       1      -0.00002078       0.000020779       0.051791741             0
       2      -0.00001909      -0.000001688       0.012106717             0
       3      -0.00002118       0.000002085       0.004447246             1
       4      -0.00002136       0.000000186       0.001568915             1
       5      -0.00002129      -0.000000069       0.000780199             1
       6      -0.00002128      -0.000000015       0.000270758             1
       7      -0.00002128       0.000000006       0.000109153             1
       8      -0.00002129       0.000000004       0.000032466             1
       9      -0.00002129      -0.000000000       0.000012583             1
      10      -0.00002129      -0.000000001       0.000002893             1
      11      -0.00002129       0.000000000       0.000001071             2
      12      -0.00002129       0.000000000       0.000000378             2

    CHF Iterations converged


    Iter     Energy [mEh]          dE [mEh]         Residual      Time [s]
       1      -0.00001275       0.000012747       0.043584572             0
       2      -0.00001155      -0.000001198       0.009896951             0
       3      -0.00001306       0.000001509       0.003433435             0
       4      -0.00001313       0.000000068       0.001532176             0
       5      -0.00001307      -0.000000054       0.000675482             0
       6      -0.00001307      -0.000000007       0.000207964             0
       7      -0.00001307       0.000000005       0.000083483             1
       8      -0.00001307       0.000000002       0.000024421             1
       9      -0.00001307      -0.000000001       0.000010202             1
      10      -0.00001307      -0.000000000       0.000002890             1
      11      -0.00001307       0.000000000       0.000001039             1
      12      -0.00001307       0.000000000       0.000000385             1

    CHF Iterations converged

    Ind20,r (A<-B)      =    -0.000000021288 [Eh]
    Ind20,r (B<-A)      =    -0.000000013072 [Eh]
    Ind20,r             =    -0.000000034359 [Eh]
    Exch-Ind20,r (A<-B) =     0.000000000000 [Eh]
    Exch-Ind20,r (B<-A) =     0.000000000000 [Eh]
    Exch-Ind20,r        =     0.000000000000 [Eh]
    Disp20              =    -0.000000269617 [Eh]
    Disp20 (SS)         =    -0.000000134809 [Eh]
    Disp20 (OS)         =    -0.000000134809 [Eh]
    Exch-Disp20         =     0.000000000000 [Eh]
    Exch-Disp20 (SS)    =     0.000000000000 [Eh]
    Exch-Disp20 (OS)    =     0.000000000000 [Eh]

    SAPT Results 
  --------------------------------------------------------------------------------------------------------
    Electrostatics                 -0.01890984 [mEh]      -0.01186610 [kcal/mol]      -0.04964778 [kJ/mol]
      Elst10,r                     -0.01890984 [mEh]      -0.01186610 [kcal/mol]      -0.04964778 [kJ/mol]

    Exchange                        0.00000000 [mEh]       0.00000000 [kcal/mol]       0.00000000 [kJ/mol]
      Exch10                        0.00000000 [mEh]       0.00000000 [kcal/mol]       0.00000000 [kJ/mol]
      Exch10(S^2)                   0.00000000 [mEh]       0.00000000 [kcal/mol]       0.00000000 [kJ/mol]

    Induction                       0.00003331 [mEh]       0.00002090 [kcal/mol]       0.00008746 [kJ/mol]
      Ind20,r                      -0.00003436 [mEh]      -0.00002156 [kcal/mol]      -0.00009021 [kJ/mol]
      Exch-Ind20,r                  0.00000000 [mEh]       0.00000000 [kcal/mol]       0.00000000 [kJ/mol]
      delta HF,r (2)                0.00006767 [mEh]       0.00004246 [kcal/mol]       0.00017767 [kJ/mol]

    Dispersion                     -0.00026962 [mEh]      -0.00016919 [kcal/mol]      -0.00070788 [kJ/mol]
      Disp20                       -0.00026962 [mEh]      -0.00016919 [kcal/mol]      -0.00070788 [kJ/mol]
      Exch-Disp20                   0.00000000 [mEh]       0.00000000 [kcal/mol]       0.00000000 [kJ/mol]
      Disp20 (SS)                  -0.00013481 [mEh]      -0.00008459 [kcal/mol]      -0.00035394 [kJ/mol]
      Disp20 (OS)                  -0.00013481 [mEh]      -0.00008459 [kcal/mol]      -0.00035394 [kJ/mol]
      Exch-Disp20 (SS)              0.00000000 [mEh]       0.00000000 [kcal/mol]       0.00000000 [kJ/mol]
      Exch-Disp20 (OS)              0.00000000 [mEh]       0.00000000 [kcal/mol]       0.00000000 [kJ/mol]

  Total HF                         -0.01887653 [mEh]      -0.01184520 [kcal/mol]      -0.04956032 [kJ/mol]
  Total SAPT0                      -0.01914615 [mEh]      -0.01201439 [kcal/mol]      -0.05026820 [kJ/mol]

  Special recipe for scaled SAPT0 (see Manual):
    Electrostatics sSAPT0          -0.01890984 [mEh]      -0.01186610 [kcal/mol]      -0.04964778 [kJ/mol]
    Exchange sSAPT0                 0.00000000 [mEh]       0.00000000 [kcal/mol]       0.00000000 [kJ/mol]
    Induction sSAPT0                0.00003331 [mEh]       0.00002090 [kcal/mol]       0.00008746 [kJ/mol]
    Dispersion sSAPT0              -0.00026962 [mEh]      -0.00016919 [kcal/mol]      -0.00070788 [kJ/mol]
  Total sSAPT0                     -0.01914615 [mEh]      -0.01201439 [kcal/mol]      -0.05026820 [kJ/mol]
  --------------------------------------------------------------------------------------------------------

*** tstop() called on ds1 at Mon Oct  4 13:28:58 2021
Module time:
	user time   =      45.27 seconds =       0.75 minutes
	system time =       3.95 seconds =       0.07 minutes
	total time  =         10 seconds =       0.17 minutes
Total time:
	user time   =     100.51 seconds =       1.68 minutes
	system time =       5.26 seconds =       0.09 minutes
	total time  =         22 seconds =       0.37 minutes


Warning! sapt0 does not have an associated derived wavefunction.The returned wavefunction is the dimer SCF wavefunction.


    Psi4 stopped on: Monday, 04 October 2021 01:28PM
    Psi4 wall time for execution: 0:00:21.65

*** Psi4 exiting successfully. Buy a developer a beer!
