
    -----------------------------------------------------------------------
          Psi4: An Open-Source Ab Initio Electronic Structure Package
                               Psi4 1.4rc3 

                         Git: Rev {HEAD} 080dba6 


    D. G. A. Smith, L. A. Burns, A. C. Simmonett, R. M. Parrish,
    M. C. Schieber, R. Galvelis, P. Kraus, H. Kruse, R. Di Remigio,
    A. Alenaizan, A. M. James, S. Lehtola, J. P. Misiewicz, M. Scheurer,
    R. A. Shaw, J. B. Schriber, Y. Xie, Z. L. Glick, D. A. Sirianni,
    J. S. O'Brien, J. M. Waldrop, A. Kumar, E. G. Hohenstein,
    B. P. Pritchard, B. R. Brooks, H. F. Schaefer III, A. Yu. Sokolov,
    K. Patkowski, A. E. DePrince III, U. Bozkaya, R. A. King,
    F. A. Evangelista, J. M. Turney, T. D. Crawford, C. D. Sherrill,
    J. Chem. Phys. 152(18) 184108 (2020). https://doi.org/10.1063/5.0006002

                            Additional Code Authors
    E. T. Seidl, C. L. Janssen, E. F. Valeev, M. L. Leininger,
    J. F. Gonthier, R. M. Richard, H. R. McAlexander, M. Saitow, X. Wang,
    P. Verma, and M. H. Lechner

             Previous Authors, Complete List of Code Contributors,
                       and Citations for Specific Modules
    https://github.com/psi4/psi4/blob/master/codemeta.json
    https://github.com/psi4/psi4/graphs/contributors
    http://psicode.org/psi4manual/master/introduction.html#citing-psifour

    -----------------------------------------------------------------------


    Psi4 started on: Monday, 04 October 2021 01:21PM

    Process ID: 7539
    Host:       ds1
    PSIDATADIR: /theoryfs2/ds/csargent/miniconda3/envs/cle/share/psi4
    Memory:     500.0 MiB
    Threads:    6
    
  ==> Input File <==

--------------------------------------------------------------------------
# PSI4 file produced by CrystaLattE

# Generated from:               pyrazole.xyz
# Psithon input for N-mer:      2mer-0+340
# Number of atoms per monomer:  [9, 9]
# Number of replicas:           1
# COM priority:                 3.028988617455e-05
# Minimum COM separations:      16.976 
# Separation priority:          5.514625242491e-05
# Minimum monomer separations:  13.903 
# Cutoff priority:              2.099043018373e-06
# Nuclear repulsion energy:     373.6208951455346

memory 7 GB

molecule Dimer_0_340 {
  N            6.27981210      -4.25303372       0.19313865 
  N            6.06870777      -2.28125697       1.80544317 
  H            3.66871156      -5.64628941      -1.96684001 
  H            0.69034521      -2.37545694      -0.42864236 
  H            3.35917442       0.17650601       3.09265017 
  H            7.35266782      -1.99461311       2.90680702 
  C            3.77952586      -1.21508453       1.76858172 
  C            2.38242998      -2.55505538       0.04607681 
  C            4.01771468      -4.38410490      -0.88761863 
--
  N           33.75185229       2.40090997       7.98741574 
  N           33.87071455       4.43881700       6.45024202 
  H           36.42501503       0.00000000       8.70544609 
  H           39.31965158       2.44253874       5.95030859 
  H           36.38322751       6.15558776       4.04567228 
  H           32.40830634       5.24879406       6.06447669 
  C           36.15355095       4.76899267       5.42119317 
  C           37.63654339       2.83932046       6.31111564 
  C           36.07523806       1.45415264       7.90281359 
units = au
no_com
no_reorient
}

set {
  e_convergence 10
  d_convergence 10
  scf_type df
  mp2_type df
  cc_type df
  freeze_core true
}

energy('sapt0/aug-cc-pvdz')

--------------------------------------------------------------------------

  Memory set to   6.519 GiB by Python driver.

Scratch directory: /scratch/csargent/psi4.7158.66302/

Scratch directory: /scratch/csargent/psi4.7158.66302/

  //>>>>>>>>>>>>>>>>>>>>>>>>>>>>>>>>>>>//
  //              Dimer HF             //
  //<<<<<<<<<<<<<<<<<<<<<<<<<<<<<<<<<<<//


*** tstart() called on ds1
*** at Mon Oct  4 13:21:27 2021

   => Loading Basis Set <=

    Name: AUG-CC-PVDZ
    Role: ORBITAL
    Keyword: BASIS
    atoms 1-2, 10-11 entry N          line   218 file /theoryfs2/ds/csargent/miniconda3/envs/cle/share/psi4/basis/aug-cc-pvdz.gbs 
    atoms 3-6, 12-15 entry H          line    40 file /theoryfs2/ds/csargent/miniconda3/envs/cle/share/psi4/basis/aug-cc-pvdz.gbs 
    atoms 7-9, 16-18 entry C          line   182 file /theoryfs2/ds/csargent/miniconda3/envs/cle/share/psi4/basis/aug-cc-pvdz.gbs 


         ---------------------------------------------------------
                                   SCF
               by Justin Turney, Rob Parrish, Andy Simmonett
                          and Daniel G. A. Smith
                              RHF Reference
                        6 Threads,   6675 MiB Core
         ---------------------------------------------------------

  ==> Geometry <==

    Molecular point group: c1
    Full point group: C1

    Geometry (in Bohr), charge = 0, multiplicity = 1:

       Center              X                  Y                   Z               Mass       
    ------------   -----------------  -----------------  -----------------  -----------------
         N            6.279812100000    -4.253033720000     0.193138650000    14.003074004430
         N            6.068707770000    -2.281256970000     1.805443170000    14.003074004430
         H            3.668711560000    -5.646289410000    -1.966840010000     1.007825032230
         H            0.690345210000    -2.375456940000    -0.428642360000     1.007825032230
         H            3.359174420000     0.176506010000     3.092650170000     1.007825032230
         H            7.352667820000    -1.994613110000     2.906807020000     1.007825032230
         C            3.779525860000    -1.215084530000     1.768581720000    12.000000000000
         C            2.382429980000    -2.555055380000     0.046076810000    12.000000000000
         C            4.017714680000    -4.384104900000    -0.887618630000    12.000000000000
         N           33.751852290000     2.400909970000     7.987415740000    14.003074004430
         N           33.870714550000     4.438817000000     6.450242020000    14.003074004430
         H           36.425015030000     0.000000000000     8.705446090000     1.007825032230
         H           39.319651580000     2.442538740000     5.950308590000     1.007825032230
         H           36.383227510000     6.155587760000     4.045672280000     1.007825032230
         H           32.408306340000     5.248794060000     6.064476690000     1.007825032230
         C           36.153550950000     4.768992670000     5.421193170000    12.000000000000
         C           37.636543390000     2.839320460000     6.311115640000    12.000000000000
         C           36.075238060000     1.454152640000     7.902813590000    12.000000000000

  Running in c1 symmetry.

  Rotational constants: A =      0.05201  B =      0.00066  C =      0.00066 [cm^-1]
  Rotational constants: A =   1559.17834  B =     19.82124  C =     19.64357 [MHz]
  Nuclear repulsion =  373.620895143045914

  Charge       = 0
  Multiplicity = 1
  Electrons    = 72
  Nalpha       = 36
  Nbeta        = 36

  ==> Algorithm <==

  SCF Algorithm Type is DF.
  DIIS enabled.
  MOM disabled.
  Fractional occupation disabled.
  Guess Type is SAD.
  Energy threshold   = 1.00e-10
  Density threshold  = 1.00e-10
  Integral threshold = 1.00e-12

  ==> Primary Basis <==

  Basis Set: AUG-CC-PVDZ
    Blend: AUG-CC-PVDZ
    Number of shells: 130
    Number of basis functions: 302
    Number of Cartesian functions: 322
    Spherical Harmonics?: true
    Max angular momentum: 2

   => Loading Basis Set <=

    Name: (AUG-CC-PVDZ AUX)
    Role: JKFIT
    Keyword: DF_BASIS_SCF
    atoms 1-2, 10-11 entry N          line   212 file /theoryfs2/ds/csargent/miniconda3/envs/cle/share/psi4/basis/aug-cc-pvdz-jkfit.gbs 
    atoms 3-6, 12-15 entry H          line    70 file /theoryfs2/ds/csargent/miniconda3/envs/cle/share/psi4/basis/aug-cc-pvdz-jkfit.gbs 
    atoms 7-9, 16-18 entry C          line   154 file /theoryfs2/ds/csargent/miniconda3/envs/cle/share/psi4/basis/aug-cc-pvdz-jkfit.gbs 

  ==> Integral Setup <==

  ==> DiskDFJK: Density-Fitted J/K Matrices <==

    J tasked:                  Yes
    K tasked:                  Yes
    wK tasked:                  No
    OpenMP threads:              6
    Integrals threads:           6
    Memory [MiB]:             5006
    Algorithm:                Core
    Integral Cache:           SAVE
    Schwarz Cutoff:          1E-12
    Fitting Condition:       1E-10

   => Auxiliary Basis Set <=

  Basis Set: (AUG-CC-PVDZ AUX)
    Blend: AUG-CC-PVDZ-JKFIT
    Number of shells: 376
    Number of basis functions: 1116
    Number of Cartesian functions: 1290
    Spherical Harmonics?: true
    Max angular momentum: 3

  Minimum eigenvalue in the overlap matrix is 3.0324469241E-05.
  Reciprocal condition number of the overlap matrix is 2.4867199077E-06.
    Using symmetric orthogonalization.

  ==> Pre-Iterations <==

  SCF Guess: Superposition of Atomic Densities via on-the-fly atomic UHF (no occupation information).

   -------------------------
    Irrep   Nso     Nmo    
   -------------------------
     A        302     302 
   -------------------------
    Total     302     302
   -------------------------

  ==> Iterations <==

                           Total Energy        Delta E     RMS |[F,P]|

   @DF-RHF iter SAD:  -449.44445655926313   -4.49444e+02   0.00000e+00 
   @DF-RHF iter   1:  -449.27104006463469    1.73416e-01   2.12826e-03 DIIS
   @DF-RHF iter   2:  -449.47974591165320   -2.08706e-01   9.74149e-04 DIIS
   @DF-RHF iter   3:  -449.52160452552550   -4.18586e-02   2.10402e-04 DIIS
   @DF-RHF iter   4:  -449.52437574325791   -2.77122e-03   8.57987e-05 DIIS
   @DF-RHF iter   5:  -449.52473387781652   -3.58135e-04   1.69579e-05 DIIS
   @DF-RHF iter   6:  -449.52476777584968   -3.38980e-05   7.02792e-06 DIIS
   @DF-RHF iter   7:  -449.52477567117484   -7.89533e-06   3.11375e-06 DIIS
   @DF-RHF iter   8:  -449.52477720253535   -1.53136e-06   1.43905e-06 DIIS
   @DF-RHF iter   9:  -449.52477754023477   -3.37699e-07   4.02318e-07 DIIS
   @DF-RHF iter  10:  -449.52477755805955   -1.78248e-08   1.20770e-07 DIIS
   @DF-RHF iter  11:  -449.52477755944119   -1.38164e-09   2.82608e-08 DIIS
   @DF-RHF iter  12:  -449.52477755953362   -9.24274e-11   8.23908e-09 DIIS
   @DF-RHF iter  13:  -449.52477755954214   -8.52651e-12   4.02239e-09 DIIS
   @DF-RHF iter  14:  -449.52477755954465   -2.50111e-12   1.38984e-09 DIIS
   @DF-RHF iter  15:  -449.52477755954459    5.68434e-14   5.91380e-10 DIIS
   @DF-RHF iter  16:  -449.52477755954510   -5.11591e-13   1.80356e-10 DIIS
   @DF-RHF iter  17:  -449.52477755954482    2.84217e-13   6.55397e-11 DIIS
  Energy and wave function converged.


  ==> Post-Iterations <==

    Orbital Energies [Eh]
    ---------------------

    Doubly Occupied:                                                      

       1A    -15.636176     2A    -15.635941     3A    -15.592230  
       4A    -15.592039     5A    -11.279835     6A    -11.279628  
       7A    -11.237692     8A    -11.237514     9A    -11.209808  
      10A    -11.209638    11A     -1.386943    12A     -1.386642  
      13A     -1.121833    14A     -1.121623    15A     -1.066859  
      16A     -1.066634    17A     -0.872695    18A     -0.872493  
      19A     -0.836969    20A     -0.836796    21A     -0.757203  
      22A     -0.757028    23A     -0.645680    24A     -0.645475  
      25A     -0.620757    26A     -0.620572    27A     -0.609118  
      28A     -0.608862    29A     -0.583834    30A     -0.583659  
      31A     -0.461359    32A     -0.461119    33A     -0.370650  
      34A     -0.370450    35A     -0.345987    36A     -0.345782  

    Virtual:                                                              

      37A      0.030817    38A      0.031068    39A      0.042488  
      40A      0.042568    41A      0.049176    42A      0.049505  
      43A      0.063551    44A      0.063834    45A      0.101093  
      46A      0.101241    47A      0.104069    48A      0.104313  
      49A      0.117298    50A      0.117403    51A      0.126328  
      52A      0.126521    53A      0.133110    54A      0.133385  
      55A      0.138495    56A      0.138590    57A      0.141604  
      58A      0.141707    59A      0.156984    60A      0.157104  
      61A      0.164691    62A      0.164806    63A      0.171146  
      64A      0.171345    65A      0.178483    66A      0.178672  
      67A      0.195990    68A      0.196436    69A      0.204862  
      70A      0.205099    71A      0.206200    72A      0.206490  
      73A      0.240320    74A      0.240493    75A      0.243683  
      76A      0.243888    77A      0.244990    78A      0.245276  
      79A      0.271201    80A      0.271411    81A      0.279105  
      82A      0.279370    83A      0.301076    84A      0.301295  
      85A      0.325203    86A      0.325400    87A      0.352407  
      88A      0.352638    89A      0.355426    90A      0.355612  
      91A      0.374993    92A      0.375168    93A      0.396132  
      94A      0.396316    95A      0.402805    96A      0.403009  
      97A      0.415083    98A      0.415239    99A      0.432169  
     100A      0.432440   101A      0.443443   102A      0.443669  
     103A      0.453468   104A      0.453676   105A      0.459910  
     106A      0.460068   107A      0.478705   108A      0.478951  
     109A      0.498611   110A      0.498816   111A      0.508763  
     112A      0.508964   113A      0.522019   114A      0.522178  
     115A      0.541646   116A      0.541816   117A      0.574472  
     118A      0.574730   119A      0.586389   120A      0.586593  
     121A      0.590618   122A      0.590798   123A      0.602500  
     124A      0.602670   125A      0.621050   126A      0.621204  
     127A      0.646186   128A      0.646362   129A      0.655382  
     130A      0.655537   131A      0.676246   132A      0.676422  
     133A      0.698111   134A      0.698299   135A      0.700447  
     136A      0.700665   137A      0.721716   138A      0.721930  
     139A      0.725189   140A      0.725381   141A      0.747789  
     142A      0.747973   143A      0.758711   144A      0.758852  
     145A      0.773372   146A      0.773579   147A      0.781533  
     148A      0.781764   149A      0.828572   150A      0.828783  
     151A      0.838298   152A      0.838512   153A      0.848453  
     154A      0.848649   155A      0.881466   156A      0.881641  
     157A      0.888833   158A      0.889024   159A      0.907020  
     160A      0.907214   161A      0.924853   162A      0.925101  
     163A      0.942664   164A      0.942846   165A      0.978288  
     166A      0.978482   167A      0.984925   168A      0.985113  
     169A      1.011224   170A      1.011433   171A      1.046669  
     172A      1.046903   173A      1.066573   174A      1.066756  
     175A      1.100906   176A      1.101136   177A      1.128163  
     178A      1.128328   179A      1.134211   180A      1.134473  
     181A      1.150319   182A      1.150496   183A      1.175232  
     184A      1.175436   185A      1.220597   186A      1.220828  
     187A      1.269634   188A      1.269825   189A      1.303450  
     190A      1.303618   191A      1.311492   192A      1.311683  
     193A      1.365830   194A      1.366117   195A      1.401112  
     196A      1.401299   197A      1.474752   198A      1.474980  
     199A      1.512084   200A      1.512306   201A      1.526210  
     202A      1.526385   203A      1.561045   204A      1.561250  
     205A      1.590965   206A      1.591136   207A      1.608753  
     208A      1.608926   209A      1.637518   210A      1.637690  
     211A      1.669568   212A      1.669727   213A      1.703705  
     214A      1.703904   215A      1.724027   216A      1.724217  
     217A      1.749317   218A      1.749480   219A      1.764433  
     220A      1.764638   221A      1.805096   222A      1.805313  
     223A      1.875658   224A      1.875897   225A      1.932473  
     226A      1.932659   227A      1.943641   228A      1.943810  
     229A      1.988212   230A      1.988326   231A      2.021520  
     232A      2.021715   233A      2.057729   234A      2.057879  
     235A      2.088873   236A      2.089110   237A      2.144774  
     238A      2.144958   239A      2.190067   240A      2.190265  
     241A      2.200901   242A      2.201086   243A      2.230516  
     244A      2.230736   245A      2.275906   246A      2.276084  
     247A      2.307697   248A      2.307915   249A      2.360718  
     250A      2.360978   251A      2.389184   252A      2.389402  
     253A      2.393804   254A      2.394121   255A      2.435254  
     256A      2.435528   257A      2.464990   258A      2.465265  
     259A      2.531849   260A      2.532068   261A      2.570260  
     262A      2.570505   263A      2.584872   264A      2.585004  
     265A      2.643020   266A      2.643237   267A      2.733074  
     268A      2.733302   269A      2.826871   270A      2.827111  
     271A      2.834770   272A      2.835023   273A      2.901604  
     274A      2.901867   275A      2.918617   276A      2.918880  
     277A      2.999257   278A      2.999430   279A      3.055372  
     280A      3.055599   281A      3.092498   282A      3.092638  
     283A      3.122767   284A      3.123000   285A      3.189077  
     286A      3.189198   287A      3.222095   288A      3.222276  
     289A      3.297973   290A      3.298144   291A      3.380282  
     292A      3.380505   293A      3.520822   294A      3.521007  
     295A      3.686364   296A      3.686830   297A      3.889304  
     298A      3.889612   299A      4.209372   300A      4.209707  
     301A      4.463105   302A      4.463493  

    Final Occupation by Irrep:
              A 
    DOCC [    36 ]

  @DF-RHF Final Energy:  -449.52477755954482

   => Energetics <=

    Nuclear Repulsion Energy =            373.6208951430459138
    One-Electron Energy =               -1347.7562951969109690
    Two-Electron Energy =                 524.6106224943201823
    Total Energy =                       -449.5247775595448729

Computation Completed


Properties will be evaluated at   0.000000,   0.000000,   0.000000 [a0]

Properties computed using the SCF density matrix

  Nuclear Dipole Moment: [e a0]
     X:  1439.6747      Y:    11.5944      Z:   266.7965

  Electronic Dipole Moment: [e a0]
     X: -1439.7850      Y:   -10.4004      Z:  -266.9199

  Dipole Moment: [e a0]
     X:    -0.1102      Y:     1.1940      Z:    -0.1234     Total:     1.2054

  Dipole Moment: [D]
     X:    -0.2802      Y:     3.0349      Z:    -0.3136     Total:     3.0639


*** tstop() called on ds1 at Mon Oct  4 13:21:32 2021
Module time:
	user time   =      22.61 seconds =       0.38 minutes
	system time =       0.58 seconds =       0.01 minutes
	total time  =          5 seconds =       0.08 minutes
Total time:
	user time   =      22.61 seconds =       0.38 minutes
	system time =       0.58 seconds =       0.01 minutes
	total time  =          5 seconds =       0.08 minutes

  //>>>>>>>>>>>>>>>>>>>>>>>>>>>>>>>>>>>//
  //            Monomer A HF           //
  //<<<<<<<<<<<<<<<<<<<<<<<<<<<<<<<<<<<//


*** tstart() called on ds1
*** at Mon Oct  4 13:21:32 2021

   => Loading Basis Set <=

    Name: AUG-CC-PVDZ
    Role: ORBITAL
    Keyword: BASIS
    atoms 1-2, 10-11 entry N          line   218 file /theoryfs2/ds/csargent/miniconda3/envs/cle/share/psi4/basis/aug-cc-pvdz.gbs 
    atoms 3-6, 12-15 entry H          line    40 file /theoryfs2/ds/csargent/miniconda3/envs/cle/share/psi4/basis/aug-cc-pvdz.gbs 
    atoms 7-9, 16-18 entry C          line   182 file /theoryfs2/ds/csargent/miniconda3/envs/cle/share/psi4/basis/aug-cc-pvdz.gbs 


         ---------------------------------------------------------
                                   SCF
               by Justin Turney, Rob Parrish, Andy Simmonett
                          and Daniel G. A. Smith
                              RHF Reference
                        6 Threads,   6675 MiB Core
         ---------------------------------------------------------

  ==> Geometry <==

    Molecular point group: c1
    Full point group: C1

    Geometry (in Bohr), charge = 0, multiplicity = 1:

       Center              X                  Y                   Z               Mass       
    ------------   -----------------  -----------------  -----------------  -----------------
         N            6.279812100000    -4.253033720000     0.193138650000    14.003074004430
         N            6.068707770000    -2.281256970000     1.805443170000    14.003074004430
         H            3.668711560000    -5.646289410000    -1.966840010000     1.007825032230
         H            0.690345210000    -2.375456940000    -0.428642360000     1.007825032230
         H            3.359174420000     0.176506010000     3.092650170000     1.007825032230
         H            7.352667820000    -1.994613110000     2.906807020000     1.007825032230
         C            3.779525860000    -1.215084530000     1.768581720000    12.000000000000
         C            2.382429980000    -2.555055380000     0.046076810000    12.000000000000
         C            4.017714680000    -4.384104900000    -0.887618630000    12.000000000000
      Gh(N)          33.751852290000     2.400909970000     7.987415740000    14.003074004430
      Gh(N)          33.870714550000     4.438817000000     6.450242020000    14.003074004430
      Gh(H)          36.425015030000     0.000000000000     8.705446090000     1.007825032230
      Gh(H)          39.319651580000     2.442538740000     5.950308590000     1.007825032230
      Gh(H)          36.383227510000     6.155587760000     4.045672280000     1.007825032230
      Gh(H)          32.408306340000     5.248794060000     6.064476690000     1.007825032230
      Gh(C)          36.153550950000     4.768992670000     5.421193170000    12.000000000000
      Gh(C)          37.636543390000     2.839320460000     6.311115640000    12.000000000000
      Gh(C)          36.075238060000     1.454152640000     7.902813590000    12.000000000000

  Running in c1 symmetry.

  Rotational constants: A =      0.05201  B =      0.00066  C =      0.00066 [cm^-1]
  Rotational constants: A =   1559.17834  B =     19.82124  C =     19.64357 [MHz]
  Nuclear repulsion =  166.624056450327203

  Charge       = 0
  Multiplicity = 1
  Electrons    = 36
  Nalpha       = 18
  Nbeta        = 18

  ==> Algorithm <==

  SCF Algorithm Type is DF.
  DIIS enabled.
  MOM disabled.
  Fractional occupation disabled.
  Guess Type is SAD.
  Energy threshold   = 1.00e-10
  Density threshold  = 1.00e-10
  Integral threshold = 1.00e-12

  ==> Primary Basis <==

  Basis Set: AUG-CC-PVDZ
    Blend: AUG-CC-PVDZ
    Number of shells: 130
    Number of basis functions: 302
    Number of Cartesian functions: 322
    Spherical Harmonics?: true
    Max angular momentum: 2

   => Loading Basis Set <=

    Name: (AUG-CC-PVDZ AUX)
    Role: JKFIT
    Keyword: DF_BASIS_SCF
    atoms 1-2, 10-11 entry N          line   212 file /theoryfs2/ds/csargent/miniconda3/envs/cle/share/psi4/basis/aug-cc-pvdz-jkfit.gbs 
    atoms 3-6, 12-15 entry H          line    70 file /theoryfs2/ds/csargent/miniconda3/envs/cle/share/psi4/basis/aug-cc-pvdz-jkfit.gbs 
    atoms 7-9, 16-18 entry C          line   154 file /theoryfs2/ds/csargent/miniconda3/envs/cle/share/psi4/basis/aug-cc-pvdz-jkfit.gbs 

  ==> Integral Setup <==

  ==> DiskDFJK: Density-Fitted J/K Matrices <==

    J tasked:                  Yes
    K tasked:                  Yes
    wK tasked:                  No
    OpenMP threads:              6
    Integrals threads:           6
    Memory [MiB]:             5006
    Algorithm:                Core
    Integral Cache:           LOAD
    Schwarz Cutoff:          1E-12
    Fitting Condition:       1E-10

   => Auxiliary Basis Set <=

  Basis Set: (AUG-CC-PVDZ AUX)
    Blend: AUG-CC-PVDZ-JKFIT
    Number of shells: 376
    Number of basis functions: 1116
    Number of Cartesian functions: 1290
    Spherical Harmonics?: true
    Max angular momentum: 3

  Minimum eigenvalue in the overlap matrix is 3.0324469241E-05.
  Reciprocal condition number of the overlap matrix is 2.4867199077E-06.
    Using symmetric orthogonalization.

  ==> Pre-Iterations <==

  SCF Guess: Superposition of Atomic Densities via on-the-fly atomic UHF (no occupation information).

   -------------------------
    Irrep   Nso     Nmo    
   -------------------------
     A        302     302 
   -------------------------
    Total     302     302
   -------------------------

  ==> Iterations <==

                           Total Energy        Delta E     RMS |[F,P]|

   @DF-RHF iter SAD:  -224.72194801226374   -2.24722e+02   0.00000e+00 
   @DF-RHF iter   1:  -224.63549170042288    8.64563e-02   1.50472e-03 DIIS
   @DF-RHF iter   2:  -224.73984613320519   -1.04354e-01   6.88462e-04 DIIS
   @DF-RHF iter   3:  -224.76075487200296   -2.09087e-02   1.48626e-04 DIIS
   @DF-RHF iter   4:  -224.76213931578781   -1.38444e-03   6.05310e-05 DIIS
   @DF-RHF iter   5:  -224.76231767054716   -1.78355e-04   1.19893e-05 DIIS
   @DF-RHF iter   6:  -224.76233462802162   -1.69575e-05   4.96772e-06 DIIS
   @DF-RHF iter   7:  -224.76233858405863   -3.95604e-06   2.18806e-06 DIIS
   @DF-RHF iter   8:  -224.76233934480106   -7.60742e-07   1.01700e-06 DIIS
   @DF-RHF iter   9:  -224.76233951244276   -1.67642e-07   2.83302e-07 DIIS
   @DF-RHF iter  10:  -224.76233952126339   -8.82062e-09   8.55547e-08 DIIS
   @DF-RHF iter  11:  -224.76233952195352   -6.90136e-10   1.99714e-08 DIIS
   @DF-RHF iter  12:  -224.76233952199931   -4.57874e-11   5.81092e-09 DIIS
   @DF-RHF iter  13:  -224.76233952200360   -4.29168e-12   2.83097e-09 DIIS
   @DF-RHF iter  14:  -224.76233952200425   -6.53699e-13   9.75191e-10 DIIS
   @DF-RHF iter  15:  -224.76233952200434   -8.52651e-14   4.15548e-10 DIIS
   @DF-RHF iter  16:  -224.76233952200488   -5.40012e-13   1.25998e-10 DIIS
   @DF-RHF iter  17:  -224.76233952200462    2.55795e-13   4.47778e-11 DIIS
  Energy and wave function converged.


  ==> Post-Iterations <==

    Orbital Energies [Eh]
    ---------------------

    Doubly Occupied:                                                      

       1A    -15.636223     2A    -15.592313     3A    -11.279894  
       4A    -11.237784     5A    -11.209891     6A     -1.386922  
       7A     -1.121901     8A     -1.066898     9A     -0.872768  
      10A     -0.837061    11A     -0.757292    12A     -0.645746  
      13A     -0.620834    14A     -0.609140    15A     -0.583920  
      16A     -0.461404    17A     -0.370721    18A     -0.346048  

    Virtual:                                                              

      19A      0.022787    20A      0.030764    21A      0.040144  
      22A      0.042368    23A      0.044211    24A      0.049159  
      25A      0.063518    26A      0.065929    27A      0.084108  
      28A      0.090839    29A      0.099039    30A      0.100998  
      31A      0.104029    32A      0.117179    33A      0.118473  
      34A      0.125970    35A      0.126274    36A      0.128369  
      37A      0.133069    38A      0.133494    39A      0.134270  
      40A      0.138403    41A      0.141490    42A      0.156889  
      43A      0.158666    44A      0.164592    45A      0.166052  
      46A      0.171075    47A      0.178407    48A      0.179251  
      49A      0.195607    50A      0.196044    51A      0.201564  
      52A      0.204793    53A      0.206162    54A      0.223039  
      55A      0.225242    56A      0.228368    57A      0.235649  
      58A      0.240236    59A      0.243626    60A      0.244965  
      61A      0.264145    62A      0.271056    63A      0.271129  
      64A      0.279081    65A      0.301010    66A      0.322031  
      67A      0.325148    68A      0.340207    69A      0.352358  
      70A      0.355357    71A      0.366655    72A      0.373042  
      73A      0.374907    74A      0.383857    75A      0.396061  
      76A      0.402741    77A      0.414998    78A      0.427578  
      79A      0.432132    80A      0.432210    81A      0.441328  
      82A      0.442474    83A      0.443385    84A      0.453393  
      85A      0.456117    86A      0.457544    87A      0.459816  
      88A      0.461986    89A      0.478655    90A      0.498543  
      91A      0.508690    92A      0.509842    93A      0.519516  
      94A      0.521917    95A      0.533239    96A      0.538173  
      97A      0.541560    98A      0.559439    99A      0.568899  
     100A      0.571985   101A      0.574433   102A      0.586318  
     103A      0.590538   104A      0.595297   105A      0.602413  
     106A      0.613497   107A      0.620952   108A      0.621366  
     109A      0.633661   110A      0.646110   111A      0.655295  
     112A      0.676162   113A      0.690964   114A      0.698041  
     115A      0.700391   116A      0.707920   117A      0.719580  
     118A      0.721667   119A      0.725115   120A      0.735812  
     121A      0.745520   122A      0.747709   123A      0.758592  
     124A      0.773318   125A      0.781481   126A      0.789831  
     127A      0.798244   128A      0.814580   129A      0.821068  
     130A      0.828504   131A      0.838230   132A      0.848394  
     133A      0.852099   134A      0.855238   135A      0.871152  
     136A      0.881243   137A      0.881395   138A      0.888767  
     139A      0.895840   140A      0.906950   141A      0.916278  
     142A      0.924815   143A      0.942582   144A      0.952252  
     145A      0.978222   146A      0.984850   147A      0.997334  
     148A      1.011149   149A      1.024352   150A      1.030383  
     151A      1.046606   152A      1.051795   153A      1.066503  
     154A      1.071307   155A      1.081176   156A      1.100852  
     157A      1.108377   158A      1.128058   159A      1.134196  
     160A      1.150235   161A      1.158981   162A      1.166488  
     163A      1.175168   164A      1.185174   165A      1.220548  
     166A      1.221923   167A      1.237250   168A      1.268175  
     169A      1.269556   170A      1.293941   171A      1.303342  
     172A      1.311399   173A      1.315358   174A      1.340895  
     175A      1.365807   176A      1.382056   177A      1.401043  
     178A      1.435208   179A      1.444955   180A      1.474691  
     181A      1.493412   182A      1.507276   183A      1.512027  
     184A      1.526129   185A      1.560989   186A      1.590882  
     187A      1.608669   188A      1.637437   189A      1.669472  
     190A      1.676930   191A      1.689099   192A      1.703634  
     193A      1.723950   194A      1.749215   195A      1.764373  
     196A      1.805048   197A      1.875632   198A      1.932390  
     199A      1.943558   200A      1.988067   201A      2.021445  
     202A      2.041330   203A      2.057611   204A      2.088839  
     205A      2.109341   206A      2.135059   207A      2.144687  
     208A      2.168389   209A      2.190005   210A      2.200827  
     211A      2.216873   212A      2.230457   213A      2.234121  
     214A      2.262130   215A      2.275825   216A      2.277988  
     217A      2.289522   218A      2.307640   219A      2.335896  
     220A      2.360716   221A      2.380860   222A      2.389130  
     223A      2.393822   224A      2.394793   225A      2.435246  
     226A      2.444122   227A      2.464967   228A      2.478556  
     229A      2.500210   230A      2.513876   231A      2.531798  
     232A      2.549081   233A      2.570232   234A      2.584716  
     235A      2.631583   236A      2.642961   237A      2.667778  
     238A      2.703272   239A      2.719142   240A      2.733029  
     241A      2.826838   242A      2.828202   243A      2.834751  
     244A      2.870046   245A      2.890283   246A      2.901587  
     247A      2.918598   248A      2.945343   249A      2.999157  
     250A      3.028238   251A      3.055324   252A      3.089998  
     253A      3.092358   254A      3.122730   255A      3.140304  
     256A      3.182133   257A      3.188930   258A      3.222008  
     259A      3.254401   260A      3.289370   261A      3.297865  
     262A      3.355900   263A      3.380236   264A      3.395872  
     265A      3.423642   266A      3.448471   267A      3.487460  
     268A      3.497824   269A      3.520727   270A      3.633862  
     271A      3.667211   272A      3.686563   273A      3.735886  
     274A      3.770369   275A      3.851377   276A      3.889327  
     277A      3.964806   278A      4.035879   279A      4.095015  
     280A      4.209428   281A      4.244331   282A      4.448509  
     283A      4.463235   284A      4.658726   285A      4.708412  
     286A      4.750213   287A      4.811091   288A      4.995115  
     289A      5.076967   290A      5.241507   291A      5.531736  
     292A      5.669276   293A      5.826916   294A      6.107286  
     295A      6.318476   296A      6.707852   297A      6.967753  
     298A     18.111460   299A     18.648340   300A     19.373976  
     301A     25.245683   302A     25.705572  

    Final Occupation by Irrep:
              A 
    DOCC [    18 ]

  @DF-RHF Final Energy:  -224.76233952200462

   => Energetics <=

    Nuclear Repulsion Energy =            166.6240564503272026
    One-Electron Energy =                -633.4992733910920606
    Two-Electron Energy =                 242.1128774187602346
    Total Energy =                       -224.7623395220046234

Computation Completed


Properties will be evaluated at   0.000000,   0.000000,   0.000000 [a0]

Properties computed using the SCF density matrix

  Nuclear Dipole Moment: [e a0]
     X:   162.5886      Y:  -104.5054      Z:    23.1563

  Electronic Dipole Moment: [e a0]
     X:  -162.9913      Y:   105.1370      Z:   -22.5767

  Dipole Moment: [e a0]
     X:    -0.4027      Y:     0.6317      Z:     0.5796     Total:     0.9472

  Dipole Moment: [D]
     X:    -1.0235      Y:     1.6055      Z:     1.4733     Total:     2.4075


*** tstop() called on ds1 at Mon Oct  4 13:21:36 2021
Module time:
	user time   =      15.90 seconds =       0.26 minutes
	system time =       0.34 seconds =       0.01 minutes
	total time  =          4 seconds =       0.07 minutes
Total time:
	user time   =      38.85 seconds =       0.65 minutes
	system time =       0.93 seconds =       0.02 minutes
	total time  =          9 seconds =       0.15 minutes

  //>>>>>>>>>>>>>>>>>>>>>>>>>>>>>>>>>>>//
  //            Monomer B HF           //
  //<<<<<<<<<<<<<<<<<<<<<<<<<<<<<<<<<<<//


*** tstart() called on ds1
*** at Mon Oct  4 13:21:36 2021

   => Loading Basis Set <=

    Name: AUG-CC-PVDZ
    Role: ORBITAL
    Keyword: BASIS
    atoms 1-2, 10-11 entry N          line   218 file /theoryfs2/ds/csargent/miniconda3/envs/cle/share/psi4/basis/aug-cc-pvdz.gbs 
    atoms 3-6, 12-15 entry H          line    40 file /theoryfs2/ds/csargent/miniconda3/envs/cle/share/psi4/basis/aug-cc-pvdz.gbs 
    atoms 7-9, 16-18 entry C          line   182 file /theoryfs2/ds/csargent/miniconda3/envs/cle/share/psi4/basis/aug-cc-pvdz.gbs 


         ---------------------------------------------------------
                                   SCF
               by Justin Turney, Rob Parrish, Andy Simmonett
                          and Daniel G. A. Smith
                              RHF Reference
                        6 Threads,   6675 MiB Core
         ---------------------------------------------------------

  ==> Geometry <==

    Molecular point group: c1
    Full point group: C1

    Geometry (in Bohr), charge = 0, multiplicity = 1:

       Center              X                  Y                   Z               Mass       
    ------------   -----------------  -----------------  -----------------  -----------------
      Gh(N)           6.279812100000    -4.253033720000     0.193138650000    14.003074004430
      Gh(N)           6.068707770000    -2.281256970000     1.805443170000    14.003074004430
      Gh(H)           3.668711560000    -5.646289410000    -1.966840010000     1.007825032230
      Gh(H)           0.690345210000    -2.375456940000    -0.428642360000     1.007825032230
      Gh(H)           3.359174420000     0.176506010000     3.092650170000     1.007825032230
      Gh(H)           7.352667820000    -1.994613110000     2.906807020000     1.007825032230
      Gh(C)           3.779525860000    -1.215084530000     1.768581720000    12.000000000000
      Gh(C)           2.382429980000    -2.555055380000     0.046076810000    12.000000000000
      Gh(C)           4.017714680000    -4.384104900000    -0.887618630000    12.000000000000
         N           33.751852290000     2.400909970000     7.987415740000    14.003074004430
         N           33.870714550000     4.438817000000     6.450242020000    14.003074004430
         H           36.425015030000     0.000000000000     8.705446090000     1.007825032230
         H           39.319651580000     2.442538740000     5.950308590000     1.007825032230
         H           36.383227510000     6.155587760000     4.045672280000     1.007825032230
         H           32.408306340000     5.248794060000     6.064476690000     1.007825032230
         C           36.153550950000     4.768992670000     5.421193170000    12.000000000000
         C           37.636543390000     2.839320460000     6.311115640000    12.000000000000
         C           36.075238060000     1.454152640000     7.902813590000    12.000000000000

  Running in c1 symmetry.

  Rotational constants: A =      0.05201  B =      0.00066  C =      0.00066 [cm^-1]
  Rotational constants: A =   1559.17834  B =     19.82124  C =     19.64357 [MHz]
  Nuclear repulsion =  166.628602810234270

  Charge       = 0
  Multiplicity = 1
  Electrons    = 36
  Nalpha       = 18
  Nbeta        = 18

  ==> Algorithm <==

  SCF Algorithm Type is DF.
  DIIS enabled.
  MOM disabled.
  Fractional occupation disabled.
  Guess Type is SAD.
  Energy threshold   = 1.00e-10
  Density threshold  = 1.00e-10
  Integral threshold = 1.00e-12

  ==> Primary Basis <==

  Basis Set: AUG-CC-PVDZ
    Blend: AUG-CC-PVDZ
    Number of shells: 130
    Number of basis functions: 302
    Number of Cartesian functions: 322
    Spherical Harmonics?: true
    Max angular momentum: 2

   => Loading Basis Set <=

    Name: (AUG-CC-PVDZ AUX)
    Role: JKFIT
    Keyword: DF_BASIS_SCF
    atoms 1-2, 10-11 entry N          line   212 file /theoryfs2/ds/csargent/miniconda3/envs/cle/share/psi4/basis/aug-cc-pvdz-jkfit.gbs 
    atoms 3-6, 12-15 entry H          line    70 file /theoryfs2/ds/csargent/miniconda3/envs/cle/share/psi4/basis/aug-cc-pvdz-jkfit.gbs 
    atoms 7-9, 16-18 entry C          line   154 file /theoryfs2/ds/csargent/miniconda3/envs/cle/share/psi4/basis/aug-cc-pvdz-jkfit.gbs 

  ==> Integral Setup <==

  ==> DiskDFJK: Density-Fitted J/K Matrices <==

    J tasked:                  Yes
    K tasked:                  Yes
    wK tasked:                  No
    OpenMP threads:              6
    Integrals threads:           6
    Memory [MiB]:             5006
    Algorithm:                Core
    Integral Cache:           LOAD
    Schwarz Cutoff:          1E-12
    Fitting Condition:       1E-10

   => Auxiliary Basis Set <=

  Basis Set: (AUG-CC-PVDZ AUX)
    Blend: AUG-CC-PVDZ-JKFIT
    Number of shells: 376
    Number of basis functions: 1116
    Number of Cartesian functions: 1290
    Spherical Harmonics?: true
    Max angular momentum: 3

  Minimum eigenvalue in the overlap matrix is 3.0324469241E-05.
  Reciprocal condition number of the overlap matrix is 2.4867199077E-06.
    Using symmetric orthogonalization.

  ==> Pre-Iterations <==

  SCF Guess: Superposition of Atomic Densities via on-the-fly atomic UHF (no occupation information).

   -------------------------
    Irrep   Nso     Nmo    
   -------------------------
     A        302     302 
   -------------------------
    Total     302     302
   -------------------------

  ==> Iterations <==

                           Total Energy        Delta E     RMS |[F,P]|

   @DF-RHF iter SAD:  -224.72250854616516   -2.24723e+02   0.00000e+00 
   @DF-RHF iter   1:  -224.63556595997218    8.69426e-02   1.50490e-03 DIIS
   @DF-RHF iter   2:  -224.73993304769527   -1.04367e-01   6.88620e-04 DIIS
   @DF-RHF iter   3:  -224.76085080099617   -2.09178e-02   1.48614e-04 DIIS
   @DF-RHF iter   4:  -224.76223499965943   -1.38420e-03   6.05151e-05 DIIS
   @DF-RHF iter   5:  -224.76241324416114   -1.78245e-04   1.19848e-05 DIIS
   @DF-RHF iter   6:  -224.76243017730999   -1.69331e-05   4.96323e-06 DIIS
   @DF-RHF iter   7:  -224.76243412515299   -3.94784e-06   2.18627e-06 DIIS
   @DF-RHF iter   8:  -224.76243488469152   -7.59539e-07   1.01631e-06 DIIS
   @DF-RHF iter   9:  -224.76243505219662   -1.67505e-07   2.83280e-07 DIIS
   @DF-RHF iter  10:  -224.76243506101423   -8.81761e-09   8.55270e-08 DIIS
   @DF-RHF iter  11:  -224.76243506170360   -6.89369e-10   1.99678e-08 DIIS
   @DF-RHF iter  12:  -224.76243506174956   -4.59579e-11   5.80973e-09 DIIS
   @DF-RHF iter  13:  -224.76243506175405   -4.49063e-12   2.83582e-09 DIIS
   @DF-RHF iter  14:  -224.76243506175464   -5.96856e-13   9.79832e-10 DIIS
   @DF-RHF iter  15:  -224.76243506175479   -1.42109e-13   4.16538e-10 DIIS
   @DF-RHF iter  16:  -224.76243506175501   -2.27374e-13   1.25808e-10 DIIS
   @DF-RHF iter  17:  -224.76243506175504   -2.84217e-14   4.47607e-11 DIIS
  Energy and wave function converged.


  ==> Post-Iterations <==

    Orbital Energies [Eh]
    ---------------------

    Doubly Occupied:                                                      

       1A    -15.636233     2A    -15.592291     3A    -11.279903  
       4A    -11.237759     5A    -11.209884     6A     -1.387001  
       7A     -1.121894     8A     -1.066928     9A     -0.872759  
      10A     -0.837039    11A     -0.757272    12A     -0.645745  
      13A     -0.620828    14A     -0.609177    15A     -0.583905  
      16A     -0.461413    17A     -0.370715    18A     -0.346055  

    Virtual:                                                              

      19A      0.022972    20A      0.030764    21A      0.040293  
      22A      0.042369    23A      0.044480    24A      0.049158  
      25A      0.063517    26A      0.066222    27A      0.084230  
      28A      0.091088    29A      0.099259    30A      0.101001  
      31A      0.104028    32A      0.117186    33A      0.118576  
      34A      0.126110    35A      0.126283    36A      0.128495  
      37A      0.133069    38A      0.133623    39A      0.134425  
      40A      0.138399    41A      0.141487    42A      0.156889  
      43A      0.158807    44A      0.164594    45A      0.166235  
      46A      0.171081    47A      0.178406    48A      0.179520  
      49A      0.195834    50A      0.196043    51A      0.201859  
      52A      0.204806    53A      0.206166    54A      0.223293  
      55A      0.225395    56A      0.228553    57A      0.235926  
      58A      0.240240    59A      0.243627    60A      0.244965  
      61A      0.264420    62A      0.271137    63A      0.271355  
      64A      0.279081    65A      0.301024    66A      0.322252  
      67A      0.325138    68A      0.340379    69A      0.352355  
      70A      0.355359    71A      0.366839    72A      0.373176  
      73A      0.374909    74A      0.384016    75A      0.396062  
      76A      0.402744    77A      0.415005    78A      0.427815  
      79A      0.432132    80A      0.432351    81A      0.441452  
      82A      0.442599    83A      0.443379    84A      0.453414  
      85A      0.456352    86A      0.457734    87A      0.459816  
      88A      0.462206    89A      0.478656    90A      0.498544  
      91A      0.508693    92A      0.510042    93A      0.519770  
      94A      0.521953    95A      0.533473    96A      0.538351  
      97A      0.541569    98A      0.559652    99A      0.569200  
     100A      0.572125   101A      0.574428   102A      0.586322  
     103A      0.590547   104A      0.595459   105A      0.602432  
     106A      0.613675   107A      0.620974   108A      0.621591  
     109A      0.633839   110A      0.646111   111A      0.655304  
     112A      0.676168   113A      0.691140   114A      0.698039  
     115A      0.700384   116A      0.708126   117A      0.719775  
     118A      0.721648   119A      0.725121   120A      0.735982  
     121A      0.745670   122A      0.747717   123A      0.758643  
     124A      0.773300   125A      0.781476   126A      0.790044  
     127A      0.798436   128A      0.814747   129A      0.821259  
     130A      0.828513   131A      0.838238   132A      0.848382  
     133A      0.852240   134A      0.855418   135A      0.871324  
     136A      0.881390   137A      0.881397   138A      0.888762  
     139A      0.896015   140A      0.906950   141A      0.916487  
     142A      0.924803   143A      0.942599   144A      0.952451  
     145A      0.978204   146A      0.984853   147A      0.997534  
     148A      1.011170   149A      1.024524   150A      1.030625  
     151A      1.046624   152A      1.052022   153A      1.066503  
     154A      1.071456   155A      1.081342   156A      1.100853  
     157A      1.108593   158A      1.128099   159A      1.134152  
     160A      1.150240   161A      1.159207   162A      1.166712  
     163A      1.175167   164A      1.185378   165A      1.220538  
     166A      1.222160   167A      1.237458   168A      1.268424  
     169A      1.269573   170A      1.294190   171A      1.303390  
     172A      1.311431   173A      1.315572   174A      1.341105  
     175A      1.365802   176A      1.382264   177A      1.401040  
     178A      1.435451   179A      1.445176   180A      1.474706  
     181A      1.493675   182A      1.507473   183A      1.512021  
     184A      1.526136   185A      1.560976   186A      1.590889  
     187A      1.608679   188A      1.637435   189A      1.669494  
     190A      1.677174   191A      1.689362   192A      1.703636  
     193A      1.723957   194A      1.749249   195A      1.764367  
     196A      1.805025   197A      1.875589   198A      1.932406  
     199A      1.943562   200A      1.988139   201A      2.021453  
     202A      2.041479   203A      2.057662   204A      2.088810  
     205A      2.109480   206A      2.135248   207A      2.144708  
     208A      2.168503   209A      2.189999   210A      2.200828  
     211A      2.217060   212A      2.230454   213A      2.234263  
     214A      2.262275   215A      2.275832   216A      2.278167  
     217A      2.289679   218A      2.307637   219A      2.336130  
     220A      2.360646   221A      2.380994   222A      2.389121  
     223A      2.393758   224A      2.394962   225A      2.435199  
     226A      2.444299   227A      2.464942   228A      2.478734  
     229A      2.500295   230A      2.514117   231A      2.531785  
     232A      2.549232   233A      2.570195   234A      2.584820  
     235A      2.631777   236A      2.642959   237A      2.667966  
     238A      2.703473   239A      2.719322   240A      2.733013  
     241A      2.826807   242A      2.828340   243A      2.834707  
     244A      2.870278   245A      2.890449   246A      2.901543  
     247A      2.918563   248A      2.945596   249A      2.999195  
     250A      3.028504   251A      3.055311   252A      3.090274  
     253A      3.092440   254A      3.122703   255A      3.140465  
     256A      3.182426   257A      3.189011   258A      3.222030  
     259A      3.254607   260A      3.289667   261A      3.297913  
     262A      3.356241   263A      3.380220   264A      3.396076  
     265A      3.423973   266A      3.448750   267A      3.487614  
     268A      3.497935   269A      3.520764   270A      3.634052  
     271A      3.667416   272A      3.686295   273A      3.736069  
     274A      3.770567   275A      3.851654   276A      3.889250  
     277A      3.964839   278A      4.036010   279A      4.095232  
     280A      4.209312   281A      4.244553   282A      4.448899  
     283A      4.463032   284A      4.658918   285A      4.708529  
     286A      4.750375   287A      4.811254   288A      4.995329  
     289A      5.077287   290A      5.241914   291A      5.531718  
     292A      5.669451   293A      5.827316   294A      6.107182  
     295A      6.318746   296A      6.708840   297A      6.968363  
     298A     18.111611   299A     18.648302   300A     19.374017  
     301A     25.246064   302A     25.705461  

    Final Occupation by Irrep:
              A 
    DOCC [    18 ]

  @DF-RHF Final Energy:  -224.76243506175504

   => Energetics <=

    Nuclear Repulsion Energy =            166.6286028102342698
    One-Electron Energy =                -633.5084734003639824
    Two-Electron Energy =                 242.1174355283746706
    Total Energy =                       -224.7624350617550419

Computation Completed


Properties will be evaluated at   0.000000,   0.000000,   0.000000 [a0]

Properties computed using the SCF density matrix

  Nuclear Dipole Moment: [e a0]
     X:  1277.0862      Y:   116.0998      Z:   243.6402

  Electronic Dipole Moment: [e a0]
     X: -1276.7952      Y:  -115.5358      Z:  -244.3434

  Dipole Moment: [e a0]
     X:     0.2909      Y:     0.5640      Z:    -0.7031     Total:     0.9472

  Dipole Moment: [D]
     X:     0.7394      Y:     1.4336      Z:    -1.7871     Total:     2.4074


*** tstop() called on ds1 at Mon Oct  4 13:21:39 2021
Module time:
	user time   =      16.27 seconds =       0.27 minutes
	system time =       0.35 seconds =       0.01 minutes
	total time  =          3 seconds =       0.05 minutes
Total time:
	user time   =      55.23 seconds =       0.92 minutes
	system time =       1.29 seconds =       0.02 minutes
	total time  =         12 seconds =       0.20 minutes
  Constructing Basis Sets for SAPT...

   => Loading Basis Set <=

    Name: (AUG-CC-PVDZ AUX)
    Role: RIFIT
    Keyword: DF_BASIS_SAPT
    atoms 1-2, 10-11 entry N          line   158 file /theoryfs2/ds/csargent/miniconda3/envs/cle/share/psi4/basis/aug-cc-pvdz-ri.gbs 
    atoms 3-6, 12-15 entry H          line    30 file /theoryfs2/ds/csargent/miniconda3/envs/cle/share/psi4/basis/aug-cc-pvdz-ri.gbs 
    atoms 7-9, 16-18 entry C          line   112 file /theoryfs2/ds/csargent/miniconda3/envs/cle/share/psi4/basis/aug-cc-pvdz-ri.gbs 


  //>>>>>>>>>>>>>>>>>>>>>>>>>>>>>>>>>>>//
  //               SAPT0               //
  //<<<<<<<<<<<<<<<<<<<<<<<<<<<<<<<<<<<//


*** tstart() called on ds1
*** at Mon Oct  4 13:21:39 2021

        SAPT0  
    Ed Hohenstein
     6 June 2009

      Orbital Information
  --------------------------
    NSO        =       302
    NMO        =       302
    NRI        =       904
    NOCC A     =        18
    NOCC B     =        18
    FOCC A     =         5
    FOCC B     =         5
    NVIR A     =       284
    NVIR B     =       284

    Elst10,r            =    -0.000002961350 [Eh]
    Exch10              =     0.000000000000 [Eh]
    Exch10 (S^2)        =     0.000000000000 [Eh]

    Iter     Energy [mEh]          dE [mEh]         Residual      Time [s]
       1      -0.00003259       0.000032589       0.062183895             1
       2      -0.00002962      -0.000002973       0.015420112             1
       3      -0.00003181       0.000002189       0.007542570             1
       4      -0.00003268       0.000000870       0.001739901             1
       5      -0.00003253      -0.000000149       0.000991403             1
       6      -0.00003250      -0.000000024       0.000353369             1
       7      -0.00003252       0.000000013       0.000134800             1
       8      -0.00003252       0.000000004       0.000044256             2
       9      -0.00003252      -0.000000001       0.000016176             2
      10      -0.00003252      -0.000000001       0.000004114             2
      11      -0.00003252       0.000000000       0.000001379             2
      12      -0.00003252      -0.000000000       0.000000561             2

    CHF Iterations converged


    Iter     Energy [mEh]          dE [mEh]         Residual      Time [s]
       1      -0.00002838       0.000028378       0.054702749             0
       2      -0.00002570      -0.000002673       0.013574839             0
       3      -0.00002725       0.000001542       0.006809394             0
       4      -0.00002808       0.000000831       0.001263691             1
       5      -0.00002798      -0.000000094       0.000757996             1
       6      -0.00002796      -0.000000022       0.000269860             1
       7      -0.00002797       0.000000011       0.000107335             1
       8      -0.00002798       0.000000002       0.000038391             1
       9      -0.00002797      -0.000000001       0.000012468             1
      10      -0.00002797      -0.000000000       0.000003597             1
      11      -0.00002797       0.000000000       0.000001737             1
      12      -0.00002797       0.000000000       0.000000526             2

    CHF Iterations converged

    Ind20,r (A<-B)      =    -0.000000032518 [Eh]
    Ind20,r (B<-A)      =    -0.000000027975 [Eh]
    Ind20,r             =    -0.000000060493 [Eh]
    Exch-Ind20,r (A<-B) =     0.000000000000 [Eh]
    Exch-Ind20,r (B<-A) =     0.000000000000 [Eh]
    Exch-Ind20,r        =     0.000000000000 [Eh]
    Disp20              =    -0.000001091360 [Eh]
    Disp20 (SS)         =    -0.000000545680 [Eh]
    Disp20 (OS)         =    -0.000000545680 [Eh]
    Exch-Disp20         =     0.000000000000 [Eh]
    Exch-Disp20 (SS)    =     0.000000000000 [Eh]
    Exch-Disp20 (OS)    =     0.000000000000 [Eh]

    SAPT Results 
  --------------------------------------------------------------------------------------------------------
    Electrostatics                 -0.00296135 [mEh]      -0.00185828 [kcal/mol]      -0.00777502 [kJ/mol]
      Elst10,r                     -0.00296135 [mEh]      -0.00185828 [kcal/mol]      -0.00777502 [kJ/mol]

    Exchange                        0.00000000 [mEh]       0.00000000 [kcal/mol]       0.00000000 [kJ/mol]
      Exch10                        0.00000000 [mEh]       0.00000000 [kcal/mol]       0.00000000 [kJ/mol]
      Exch10(S^2)                   0.00000000 [mEh]       0.00000000 [kcal/mol]       0.00000000 [kJ/mol]

    Induction                      -0.00001443 [mEh]      -0.00000906 [kcal/mol]      -0.00003790 [kJ/mol]
      Ind20,r                      -0.00006049 [mEh]      -0.00003796 [kcal/mol]      -0.00015882 [kJ/mol]
      Exch-Ind20,r                  0.00000000 [mEh]       0.00000000 [kcal/mol]       0.00000000 [kJ/mol]
      delta HF,r (2)                0.00004606 [mEh]       0.00002890 [kcal/mol]       0.00012093 [kJ/mol]

    Dispersion                     -0.00109136 [mEh]      -0.00068484 [kcal/mol]      -0.00286537 [kJ/mol]
      Disp20                       -0.00109136 [mEh]      -0.00068484 [kcal/mol]      -0.00286537 [kJ/mol]
      Exch-Disp20                   0.00000000 [mEh]       0.00000000 [kcal/mol]       0.00000000 [kJ/mol]
      Disp20 (SS)                  -0.00054568 [mEh]      -0.00034242 [kcal/mol]      -0.00143268 [kJ/mol]
      Disp20 (OS)                  -0.00054568 [mEh]      -0.00034242 [kcal/mol]      -0.00143268 [kJ/mol]
      Exch-Disp20 (SS)              0.00000000 [mEh]       0.00000000 [kcal/mol]       0.00000000 [kJ/mol]
      Exch-Disp20 (OS)              0.00000000 [mEh]       0.00000000 [kcal/mol]       0.00000000 [kJ/mol]

  Total HF                         -0.00297579 [mEh]      -0.00186733 [kcal/mol]      -0.00781292 [kJ/mol]
  Total SAPT0                      -0.00406715 [mEh]      -0.00255217 [kcal/mol]      -0.01067829 [kJ/mol]

  Special recipe for scaled SAPT0 (see Manual):
    Electrostatics sSAPT0          -0.00296135 [mEh]      -0.00185828 [kcal/mol]      -0.00777502 [kJ/mol]
    Exchange sSAPT0                 0.00000000 [mEh]       0.00000000 [kcal/mol]       0.00000000 [kJ/mol]
    Induction sSAPT0               -0.00001443 [mEh]      -0.00000906 [kcal/mol]      -0.00003790 [kJ/mol]
    Dispersion sSAPT0              -0.00109136 [mEh]      -0.00068484 [kcal/mol]      -0.00286537 [kJ/mol]
  Total sSAPT0                     -0.00406715 [mEh]      -0.00255217 [kcal/mol]      -0.01067829 [kJ/mol]
  --------------------------------------------------------------------------------------------------------

*** tstop() called on ds1 at Mon Oct  4 13:21:49 2021
Module time:
	user time   =      45.98 seconds =       0.77 minutes
	system time =       4.07 seconds =       0.07 minutes
	total time  =         10 seconds =       0.17 minutes
Total time:
	user time   =     101.82 seconds =       1.70 minutes
	system time =       5.38 seconds =       0.09 minutes
	total time  =         22 seconds =       0.37 minutes


Warning! sapt0 does not have an associated derived wavefunction.The returned wavefunction is the dimer SCF wavefunction.


    Psi4 stopped on: Monday, 04 October 2021 01:21PM
    Psi4 wall time for execution: 0:00:21.79

*** Psi4 exiting successfully. Buy a developer a beer!
