
    -----------------------------------------------------------------------
          Psi4: An Open-Source Ab Initio Electronic Structure Package
                               Psi4 1.4rc3 

                         Git: Rev {HEAD} 080dba6 


    D. G. A. Smith, L. A. Burns, A. C. Simmonett, R. M. Parrish,
    M. C. Schieber, R. Galvelis, P. Kraus, H. Kruse, R. Di Remigio,
    A. Alenaizan, A. M. James, S. Lehtola, J. P. Misiewicz, M. Scheurer,
    R. A. Shaw, J. B. Schriber, Y. Xie, Z. L. Glick, D. A. Sirianni,
    J. S. O'Brien, J. M. Waldrop, A. Kumar, E. G. Hohenstein,
    B. P. Pritchard, B. R. Brooks, H. F. Schaefer III, A. Yu. Sokolov,
    K. Patkowski, A. E. DePrince III, U. Bozkaya, R. A. King,
    F. A. Evangelista, J. M. Turney, T. D. Crawford, C. D. Sherrill,
    J. Chem. Phys. 152(18) 184108 (2020). https://doi.org/10.1063/5.0006002

                            Additional Code Authors
    E. T. Seidl, C. L. Janssen, E. F. Valeev, M. L. Leininger,
    J. F. Gonthier, R. M. Richard, H. R. McAlexander, M. Saitow, X. Wang,
    P. Verma, and M. H. Lechner

             Previous Authors, Complete List of Code Contributors,
                       and Citations for Specific Modules
    https://github.com/psi4/psi4/blob/master/codemeta.json
    https://github.com/psi4/psi4/graphs/contributors
    http://psicode.org/psi4manual/master/introduction.html#citing-psifour

    -----------------------------------------------------------------------


    Psi4 started on: Monday, 04 October 2021 02:37PM

    Process ID: 10869
    Host:       ds1
    PSIDATADIR: /theoryfs2/ds/csargent/miniconda3/envs/cle/share/psi4
    Memory:     500.0 MiB
    Threads:    6
    
  ==> Input File <==

--------------------------------------------------------------------------
# PSI4 file produced by CrystaLattE

# Generated from:               pyrazole.xyz
# Psithon input for N-mer:      2mer-0+354
# Number of atoms per monomer:  [9, 9]
# Number of replicas:           2
# COM priority:                 1.533007368474e-05
# Minimum COM separations:      21.302 
# Separation priority:          2.121391844117e-05
# Minimum monomer separations:  19.116 
# Cutoff priority:              5.872565369836e-07
# Nuclear repulsion energy:     365.4267664519258

memory 7 GB

molecule Dimer_0_354 {
  N            6.27981210      -4.25303372       0.19313865 
  N            6.06870777      -2.28125697       1.80544317 
  H            3.66871156      -5.64628941      -1.96684001 
  H            0.69034521      -2.37545694      -0.42864236 
  H            3.35917442       0.17650601       3.09265017 
  H            7.35266782      -1.99461311       2.90680702 
  C            3.77952586      -1.21508453       1.76858172 
  C            2.38242998      -2.55505538       0.04607681 
  C            4.01771468      -4.38410490      -0.88761863 
--
  N          -16.93547335      28.14842737     -12.94617688 
  N          -17.14657768      26.17665062     -14.55848140 
  H          -19.54657389      29.54168306     -10.78619822 
  H          -22.52494025      26.27085060     -12.32439587 
  H          -19.85611103      23.71888764     -15.84568840 
  H          -15.86261763      25.89000676     -15.65984525 
  C          -19.43575960      25.11047818     -14.52161995 
  C          -20.83285547      26.45044903     -12.79911505 
  C          -19.19757077      28.27949855     -11.86541960 
units = au
no_com
no_reorient
}

set {
  e_convergence 10
  d_convergence 10
  scf_type df
  mp2_type df
  cc_type df
  freeze_core true
}

energy('sapt0/aug-cc-pvdz')

--------------------------------------------------------------------------

  Memory set to   6.519 GiB by Python driver.

Scratch directory: /scratch/csargent/psi4.7158.66302/

Scratch directory: /scratch/csargent/psi4.7158.66302/

  //>>>>>>>>>>>>>>>>>>>>>>>>>>>>>>>>>>>//
  //              Dimer HF             //
  //<<<<<<<<<<<<<<<<<<<<<<<<<<<<<<<<<<<//


*** tstart() called on ds1
*** at Mon Oct  4 14:37:07 2021

   => Loading Basis Set <=

    Name: AUG-CC-PVDZ
    Role: ORBITAL
    Keyword: BASIS
    atoms 1-2, 10-11 entry N          line   218 file /theoryfs2/ds/csargent/miniconda3/envs/cle/share/psi4/basis/aug-cc-pvdz.gbs 
    atoms 3-6, 12-15 entry H          line    40 file /theoryfs2/ds/csargent/miniconda3/envs/cle/share/psi4/basis/aug-cc-pvdz.gbs 
    atoms 7-9, 16-18 entry C          line   182 file /theoryfs2/ds/csargent/miniconda3/envs/cle/share/psi4/basis/aug-cc-pvdz.gbs 


         ---------------------------------------------------------
                                   SCF
               by Justin Turney, Rob Parrish, Andy Simmonett
                          and Daniel G. A. Smith
                              RHF Reference
                        6 Threads,   6675 MiB Core
         ---------------------------------------------------------

  ==> Geometry <==

    Molecular point group: c1
    Full point group: C1

    Geometry (in Bohr), charge = 0, multiplicity = 1:

       Center              X                  Y                   Z               Mass       
    ------------   -----------------  -----------------  -----------------  -----------------
         N            6.279812100000    -4.253033720000     0.193138650000    14.003074004430
         N            6.068707770000    -2.281256970000     1.805443170000    14.003074004430
         H            3.668711560000    -5.646289410000    -1.966840010000     1.007825032230
         H            0.690345210000    -2.375456940000    -0.428642360000     1.007825032230
         H            3.359174420000     0.176506010000     3.092650170000     1.007825032230
         H            7.352667820000    -1.994613110000     2.906807020000     1.007825032230
         C            3.779525860000    -1.215084530000     1.768581720000    12.000000000000
         C            2.382429980000    -2.555055380000     0.046076810000    12.000000000000
         C            4.017714680000    -4.384104900000    -0.887618630000    12.000000000000
         N          -16.935473350000    28.148427370000   -12.946176880000    14.003074004430
         N          -17.146577680000    26.176650620000   -14.558481400000    14.003074004430
         H          -19.546573890000    29.541683060000   -10.786198220000     1.007825032230
         H          -22.524940250000    26.270850600000   -12.324395870000     1.007825032230
         H          -19.856111030000    23.718887640000   -15.845688400000     1.007825032230
         H          -15.862617630000    25.890006760000   -15.659845250000     1.007825032230
         C          -19.435759600000    25.110478180000   -14.521619950000    12.000000000000
         C          -20.832855470000    26.450449030000   -12.799115050000    12.000000000000
         C          -19.197570770000    28.279498550000   -11.865419600000    12.000000000000

  Running in c1 symmetry.

  Rotational constants: A =      0.06145  B =      0.00069  C =      0.00069 [cm^-1]
  Rotational constants: A =   1842.30328  B =     20.75899  C =     20.68968 [MHz]
  Nuclear repulsion =  365.426766416278156

  Charge       = 0
  Multiplicity = 1
  Electrons    = 72
  Nalpha       = 36
  Nbeta        = 36

  ==> Algorithm <==

  SCF Algorithm Type is DF.
  DIIS enabled.
  MOM disabled.
  Fractional occupation disabled.
  Guess Type is SAD.
  Energy threshold   = 1.00e-10
  Density threshold  = 1.00e-10
  Integral threshold = 1.00e-12

  ==> Primary Basis <==

  Basis Set: AUG-CC-PVDZ
    Blend: AUG-CC-PVDZ
    Number of shells: 130
    Number of basis functions: 302
    Number of Cartesian functions: 322
    Spherical Harmonics?: true
    Max angular momentum: 2

   => Loading Basis Set <=

    Name: (AUG-CC-PVDZ AUX)
    Role: JKFIT
    Keyword: DF_BASIS_SCF
    atoms 1-2, 10-11 entry N          line   212 file /theoryfs2/ds/csargent/miniconda3/envs/cle/share/psi4/basis/aug-cc-pvdz-jkfit.gbs 
    atoms 3-6, 12-15 entry H          line    70 file /theoryfs2/ds/csargent/miniconda3/envs/cle/share/psi4/basis/aug-cc-pvdz-jkfit.gbs 
    atoms 7-9, 16-18 entry C          line   154 file /theoryfs2/ds/csargent/miniconda3/envs/cle/share/psi4/basis/aug-cc-pvdz-jkfit.gbs 

  ==> Integral Setup <==

  ==> DiskDFJK: Density-Fitted J/K Matrices <==

    J tasked:                  Yes
    K tasked:                  Yes
    wK tasked:                  No
    OpenMP threads:              6
    Integrals threads:           6
    Memory [MiB]:             5006
    Algorithm:                Core
    Integral Cache:           SAVE
    Schwarz Cutoff:          1E-12
    Fitting Condition:       1E-10

   => Auxiliary Basis Set <=

  Basis Set: (AUG-CC-PVDZ AUX)
    Blend: AUG-CC-PVDZ-JKFIT
    Number of shells: 376
    Number of basis functions: 1116
    Number of Cartesian functions: 1290
    Spherical Harmonics?: true
    Max angular momentum: 3

  Minimum eigenvalue in the overlap matrix is 3.0333777143E-05.
  Reciprocal condition number of the overlap matrix is 2.4874860254E-06.
    Using symmetric orthogonalization.

  ==> Pre-Iterations <==

  SCF Guess: Superposition of Atomic Densities via on-the-fly atomic UHF (no occupation information).

   -------------------------
    Irrep   Nso     Nmo    
   -------------------------
     A        302     302 
   -------------------------
    Total     302     302
   -------------------------

  ==> Iterations <==

                           Total Energy        Delta E     RMS |[F,P]|

   @DF-RHF iter SAD:  -449.44389602290579   -4.49444e+02   0.00000e+00 
   @DF-RHF iter   1:  -449.27102130174876    1.72875e-01   2.12789e-03 DIIS
   @DF-RHF iter   2:  -449.47972387460470   -2.08703e-01   9.73407e-04 DIIS
   @DF-RHF iter   3:  -449.52152184035850   -4.17980e-02   2.10109e-04 DIIS
   @DF-RHF iter   4:  -449.52428945383787   -2.76761e-03   8.55476e-05 DIIS
   @DF-RHF iter   5:  -449.52464570294029   -3.56249e-04   1.69583e-05 DIIS
   @DF-RHF iter   6:  -449.52467961341210   -3.39105e-05   7.02546e-06 DIIS
   @DF-RHF iter   7:  -449.52468752403570   -7.91062e-06   3.09679e-06 DIIS
   @DF-RHF iter   8:  -449.52468904626994   -1.52223e-06   1.43829e-06 DIIS
   @DF-RHF iter   9:  -449.52468938184461   -3.35575e-07   4.00578e-07 DIIS
   @DF-RHF iter  10:  -449.52468939949171   -1.76471e-08   1.20927e-07 DIIS
   @DF-RHF iter  11:  -449.52468940086970   -1.37800e-09   2.82402e-08 DIIS
   @DF-RHF iter  12:  -449.52468940096162   -9.19158e-11   8.21675e-09 DIIS
   @DF-RHF iter  13:  -449.52468940097026   -8.64020e-12   4.00302e-09 DIIS
   @DF-RHF iter  14:  -449.52468940097202   -1.76215e-12   1.37902e-09 DIIS
   @DF-RHF iter  15:  -449.52468940097270   -6.82121e-13   5.87582e-10 DIIS
   @DF-RHF iter  16:  -449.52468940097214    5.68434e-13   1.78167e-10 DIIS
   @DF-RHF iter  17:  -449.52468940097293   -7.95808e-13   6.34095e-11 DIIS
  Energy and wave function converged.


  ==> Post-Iterations <==

    Orbital Energies [Eh]
    ---------------------

    Doubly Occupied:                                                      

       1A    -15.636476     2A    -15.636202     3A    -15.592571  
       4A    -15.592300     5A    -11.280146     6A    -11.279871  
       7A    -11.238043     8A    -11.237779     9A    -11.210146  
      10A    -11.209876    11A     -1.387177    12A     -1.386903  
      13A     -1.122157    14A     -1.121886    15A     -1.067153  
      16A     -1.066882    17A     -0.873023    18A     -0.872755  
      19A     -0.837317    20A     -0.837049    21A     -0.757544  
      22A     -0.757268    23A     -0.646002    24A     -0.645734  
      25A     -0.621090    26A     -0.620822    27A     -0.609395  
      28A     -0.609121    29A     -0.584174    30A     -0.583901  
      31A     -0.461662    32A     -0.461392    33A     -0.370979  
      34A     -0.370710    35A     -0.346304    36A     -0.346029  

    Virtual:                                                              

      37A      0.030552    38A      0.030861    39A      0.042114  
      40A      0.042321    41A      0.048923    42A      0.049186  
      43A      0.063285    44A      0.063527    45A      0.100754  
      46A      0.101060    47A      0.103771    48A      0.104043  
      49A      0.116905    50A      0.117154    51A      0.126000  
      52A      0.126292    53A      0.132840    54A      0.133102  
      55A      0.138132    56A      0.138399    57A      0.141248  
      58A      0.141499    59A      0.156641    60A      0.156895  
      61A      0.164339    62A      0.164585    63A      0.170818  
      64A      0.171096    65A      0.178157    66A      0.178408  
      67A      0.195805    68A      0.196091    69A      0.204541  
      70A      0.204817    71A      0.205910    72A      0.206178  
      73A      0.239974    74A      0.240243    75A      0.243367  
      76A      0.243649    77A      0.244706    78A      0.244967  
      79A      0.270865    80A      0.271131    81A      0.278835  
      82A      0.279127    83A      0.300741    84A      0.300992  
      85A      0.324888    86A      0.325180    87A      0.352109  
      88A      0.352387    89A      0.355101    90A      0.355360  
      91A      0.374659    92A      0.374932    93A      0.395817  
      94A      0.396102    95A      0.402491    96A      0.402765  
      97A      0.414746    98A      0.414993    99A      0.431885  
     100A      0.432149   101A      0.443127   102A      0.443380  
     103A      0.453137   104A      0.453409   105A      0.459564  
     106A      0.459828   107A      0.478409   108A      0.478680  
     109A      0.498290   110A      0.498548   111A      0.508437  
     112A      0.508697   113A      0.521669   114A      0.521947  
     115A      0.541302   116A      0.541571   117A      0.574185  
     118A      0.574455   119A      0.586066   120A      0.586338  
     121A      0.590287   122A      0.590555   123A      0.602159  
     124A      0.602441   125A      0.620696   126A      0.620967  
     127A      0.645854   128A      0.646124   129A      0.655043  
     130A      0.655310   131A      0.675907   132A      0.676173  
     133A      0.697786   134A      0.698052   135A      0.700139  
     136A      0.700406   137A      0.721413   138A      0.721685  
     139A      0.724865   140A      0.725136   141A      0.747455  
     142A      0.747724   143A      0.758335   144A      0.758602  
     145A      0.773060   146A      0.773327   147A      0.781225  
     148A      0.781502   149A      0.828246   150A      0.828510  
     151A      0.837981   152A      0.838249   153A      0.848140  
     154A      0.848410   155A      0.881136   156A      0.881406  
     157A      0.888515   158A      0.888789   159A      0.906693  
     160A      0.906961   161A      0.924562   162A      0.924833  
     163A      0.942323   164A      0.942597   165A      0.977965  
     166A      0.978228   167A      0.984593   168A      0.984865  
     169A      1.010887   170A      1.011156   171A      1.046352  
     172A      1.046624   173A      1.066247   174A      1.066522  
     175A      1.100600   176A      1.100876   177A      1.127802  
     178A      1.128067   179A      1.133942   180A      1.134213  
     181A      1.149982   182A      1.150252   183A      1.174912  
     184A      1.175176   185A      1.220292   186A      1.220560  
     187A      1.269301   188A      1.269571   189A      1.303085  
     190A      1.303355   191A      1.311145   192A      1.311414  
     193A      1.365551   194A      1.365818   195A      1.400787  
     196A      1.401054   197A      1.474435   198A      1.474709  
     199A      1.511773   200A      1.512046   201A      1.525872  
     202A      1.526144   203A      1.560731   204A      1.561001  
     205A      1.590629   206A      1.590903   207A      1.608412  
     208A      1.608681   209A      1.637182   210A      1.637448  
     211A      1.669216   212A      1.669486   213A      1.703381  
     214A      1.703653   215A      1.723693   216A      1.723966  
     217A      1.748957   218A      1.749225   219A      1.764117  
     220A      1.764391   221A      1.804791   222A      1.805061  
     223A      1.875381   224A      1.875655   225A      1.932135  
     226A      1.932405   227A      1.943303   228A      1.943571  
     229A      1.987809   230A      1.988074   231A      2.021189  
     232A      2.021459   233A      2.057357   234A      2.057626  
     235A      2.088587   236A      2.088860   237A      2.144432  
     238A      2.144703   239A      2.189751   240A      2.190024  
     241A      2.200570   242A      2.200838   243A      2.230204  
     244A      2.230474   245A      2.275568   246A      2.275831  
     247A      2.307387   248A      2.307658   249A      2.360460  
     250A      2.360728   251A      2.388875   252A      2.389147  
     253A      2.393574   254A      2.393851   255A      2.434990  
     256A      2.435265   257A      2.464716   258A      2.464991  
     259A      2.531541   260A      2.531813   261A      2.569976  
     262A      2.570246   263A      2.584464   264A      2.584740  
     265A      2.642708   266A      2.642981   267A      2.732777  
     268A      2.733054   269A      2.826581   270A      2.826849  
     271A      2.834494   272A      2.834764   273A      2.901333  
     274A      2.901606   275A      2.918345   276A      2.918621  
     277A      2.998903   278A      2.999174   279A      3.055070  
     280A      3.055344   281A      3.092101   282A      3.092373  
     283A      3.122475   284A      3.122748   285A      3.188671  
     286A      3.188938   287A      3.221753   288A      3.222021  
     289A      3.297609   290A      3.297876   291A      3.379983  
     292A      3.380254   293A      3.520472   294A      3.520744  
     295A      3.686308   296A      3.686575   297A      3.889073  
     298A      3.889346   299A      4.209171   300A      4.209441  
     301A      4.462980   302A      4.463248  

    Final Occupation by Irrep:
              A 
    DOCC [    36 ]

  @DF-RHF Final Energy:  -449.52468940097293

   => Energetics <=

    Nuclear Repulsion Energy =            365.4267664162781557
    One-Electron Energy =               -1331.3472305107404736
    Two-Electron Energy =                 516.3957746934894431
    Total Energy =                       -449.5246894009728749

Computation Completed


Properties will be evaluated at   0.000000,   0.000000,   0.000000 [a0]

Properties computed using the SCF density matrix

  Nuclear Dipole Moment: [e a0]
     X:  -510.5732      Y:   860.2342      Z:  -459.1094

  Electronic Dipole Moment: [e a0]
     X:   509.7679      Y:  -860.2335      Z:   459.1094

  Dipole Moment: [e a0]
     X:    -0.8053      Y:     0.0007      Z:     0.0000     Total:     0.8053

  Dipole Moment: [D]
     X:    -2.0468      Y:     0.0017      Z:     0.0001     Total:     2.0468


*** tstop() called on ds1 at Mon Oct  4 14:37:12 2021
Module time:
	user time   =      22.06 seconds =       0.37 minutes
	system time =       0.55 seconds =       0.01 minutes
	total time  =          5 seconds =       0.08 minutes
Total time:
	user time   =      22.06 seconds =       0.37 minutes
	system time =       0.55 seconds =       0.01 minutes
	total time  =          5 seconds =       0.08 minutes

  //>>>>>>>>>>>>>>>>>>>>>>>>>>>>>>>>>>>//
  //            Monomer A HF           //
  //<<<<<<<<<<<<<<<<<<<<<<<<<<<<<<<<<<<//


*** tstart() called on ds1
*** at Mon Oct  4 14:37:12 2021

   => Loading Basis Set <=

    Name: AUG-CC-PVDZ
    Role: ORBITAL
    Keyword: BASIS
    atoms 1-2, 10-11 entry N          line   218 file /theoryfs2/ds/csargent/miniconda3/envs/cle/share/psi4/basis/aug-cc-pvdz.gbs 
    atoms 3-6, 12-15 entry H          line    40 file /theoryfs2/ds/csargent/miniconda3/envs/cle/share/psi4/basis/aug-cc-pvdz.gbs 
    atoms 7-9, 16-18 entry C          line   182 file /theoryfs2/ds/csargent/miniconda3/envs/cle/share/psi4/basis/aug-cc-pvdz.gbs 


         ---------------------------------------------------------
                                   SCF
               by Justin Turney, Rob Parrish, Andy Simmonett
                          and Daniel G. A. Smith
                              RHF Reference
                        6 Threads,   6675 MiB Core
         ---------------------------------------------------------

  ==> Geometry <==

    Molecular point group: c1
    Full point group: C1

    Geometry (in Bohr), charge = 0, multiplicity = 1:

       Center              X                  Y                   Z               Mass       
    ------------   -----------------  -----------------  -----------------  -----------------
         N            6.279812100000    -4.253033720000     0.193138650000    14.003074004430
         N            6.068707770000    -2.281256970000     1.805443170000    14.003074004430
         H            3.668711560000    -5.646289410000    -1.966840010000     1.007825032230
         H            0.690345210000    -2.375456940000    -0.428642360000     1.007825032230
         H            3.359174420000     0.176506010000     3.092650170000     1.007825032230
         H            7.352667820000    -1.994613110000     2.906807020000     1.007825032230
         C            3.779525860000    -1.215084530000     1.768581720000    12.000000000000
         C            2.382429980000    -2.555055380000     0.046076810000    12.000000000000
         C            4.017714680000    -4.384104900000    -0.887618630000    12.000000000000
      Gh(N)         -16.935473350000    28.148427370000   -12.946176880000    14.003074004430
      Gh(N)         -17.146577680000    26.176650620000   -14.558481400000    14.003074004430
      Gh(H)         -19.546573890000    29.541683060000   -10.786198220000     1.007825032230
      Gh(H)         -22.524940250000    26.270850600000   -12.324395870000     1.007825032230
      Gh(H)         -19.856111030000    23.718887640000   -15.845688400000     1.007825032230
      Gh(H)         -15.862617630000    25.890006760000   -15.659845250000     1.007825032230
      Gh(C)         -19.435759600000    25.110478180000   -14.521619950000    12.000000000000
      Gh(C)         -20.832855470000    26.450449030000   -12.799115050000    12.000000000000
      Gh(C)         -19.197570770000    28.279498550000   -11.865419600000    12.000000000000

  Running in c1 symmetry.

  Rotational constants: A =      0.06145  B =      0.00069  C =      0.00069 [cm^-1]
  Rotational constants: A =   1842.30328  B =     20.75899  C =     20.68968 [MHz]
  Nuclear repulsion =  166.624056450327203

  Charge       = 0
  Multiplicity = 1
  Electrons    = 36
  Nalpha       = 18
  Nbeta        = 18

  ==> Algorithm <==

  SCF Algorithm Type is DF.
  DIIS enabled.
  MOM disabled.
  Fractional occupation disabled.
  Guess Type is SAD.
  Energy threshold   = 1.00e-10
  Density threshold  = 1.00e-10
  Integral threshold = 1.00e-12

  ==> Primary Basis <==

  Basis Set: AUG-CC-PVDZ
    Blend: AUG-CC-PVDZ
    Number of shells: 130
    Number of basis functions: 302
    Number of Cartesian functions: 322
    Spherical Harmonics?: true
    Max angular momentum: 2

   => Loading Basis Set <=

    Name: (AUG-CC-PVDZ AUX)
    Role: JKFIT
    Keyword: DF_BASIS_SCF
    atoms 1-2, 10-11 entry N          line   212 file /theoryfs2/ds/csargent/miniconda3/envs/cle/share/psi4/basis/aug-cc-pvdz-jkfit.gbs 
    atoms 3-6, 12-15 entry H          line    70 file /theoryfs2/ds/csargent/miniconda3/envs/cle/share/psi4/basis/aug-cc-pvdz-jkfit.gbs 
    atoms 7-9, 16-18 entry C          line   154 file /theoryfs2/ds/csargent/miniconda3/envs/cle/share/psi4/basis/aug-cc-pvdz-jkfit.gbs 

  ==> Integral Setup <==

  ==> DiskDFJK: Density-Fitted J/K Matrices <==

    J tasked:                  Yes
    K tasked:                  Yes
    wK tasked:                  No
    OpenMP threads:              6
    Integrals threads:           6
    Memory [MiB]:             5006
    Algorithm:                Core
    Integral Cache:           LOAD
    Schwarz Cutoff:          1E-12
    Fitting Condition:       1E-10

   => Auxiliary Basis Set <=

  Basis Set: (AUG-CC-PVDZ AUX)
    Blend: AUG-CC-PVDZ-JKFIT
    Number of shells: 376
    Number of basis functions: 1116
    Number of Cartesian functions: 1290
    Spherical Harmonics?: true
    Max angular momentum: 3

  Minimum eigenvalue in the overlap matrix is 3.0333777143E-05.
  Reciprocal condition number of the overlap matrix is 2.4874860254E-06.
    Using symmetric orthogonalization.

  ==> Pre-Iterations <==

  SCF Guess: Superposition of Atomic Densities via on-the-fly atomic UHF (no occupation information).

   -------------------------
    Irrep   Nso     Nmo    
   -------------------------
     A        302     302 
   -------------------------
    Total     302     302
   -------------------------

  ==> Iterations <==

                           Total Energy        Delta E     RMS |[F,P]|

   @DF-RHF iter SAD:  -224.72194801266977   -2.24722e+02   0.00000e+00 
   @DF-RHF iter   1:  -224.63549169984256    8.64563e-02   1.50472e-03 DIIS
   @DF-RHF iter   2:  -224.73984613243496   -1.04354e-01   6.88462e-04 DIIS
   @DF-RHF iter   3:  -224.76075487134443   -2.09087e-02   1.48626e-04 DIIS
   @DF-RHF iter   4:  -224.76213931511452   -1.38444e-03   6.05310e-05 DIIS
   @DF-RHF iter   5:  -224.76231766987240   -1.78355e-04   1.19893e-05 DIIS
   @DF-RHF iter   6:  -224.76233462734643   -1.69575e-05   4.96772e-06 DIIS
   @DF-RHF iter   7:  -224.76233858338384   -3.95604e-06   2.18806e-06 DIIS
   @DF-RHF iter   8:  -224.76233934412639   -7.60743e-07   1.01700e-06 DIIS
   @DF-RHF iter   9:  -224.76233951176775   -1.67641e-07   2.83302e-07 DIIS
   @DF-RHF iter  10:  -224.76233952058891   -8.82116e-09   8.55547e-08 DIIS
   @DF-RHF iter  11:  -224.76233952127882   -6.89909e-10   1.99714e-08 DIIS
   @DF-RHF iter  12:  -224.76233952132469   -4.58726e-11   5.81092e-09 DIIS
   @DF-RHF iter  13:  -224.76233952132861   -3.92220e-12   2.83097e-09 DIIS
   @DF-RHF iter  14:  -224.76233952132981   -1.19371e-12   9.75191e-10 DIIS
   @DF-RHF iter  15:  -224.76233952133001   -1.98952e-13   4.15548e-10 DIIS
   @DF-RHF iter  16:  -224.76233952133012   -1.13687e-13   1.25998e-10 DIIS
   @DF-RHF iter  17:  -224.76233952132995    1.70530e-13   4.47780e-11 DIIS
  Energy and wave function converged.


  ==> Post-Iterations <==

    Orbital Energies [Eh]
    ---------------------

    Doubly Occupied:                                                      

       1A    -15.636223     2A    -15.592313     3A    -11.279894  
       4A    -11.237784     5A    -11.209891     6A     -1.386922  
       7A     -1.121901     8A     -1.066898     9A     -0.872768  
      10A     -0.837061    11A     -0.757292    12A     -0.645746  
      13A     -0.620834    14A     -0.609140    15A     -0.583920  
      16A     -0.461404    17A     -0.370721    18A     -0.346048  

    Virtual:                                                              

      19A      0.022459    20A      0.030764    21A      0.039809  
      22A      0.042368    23A      0.043933    24A      0.049159  
      25A      0.063520    26A      0.065676    27A      0.083737  
      28A      0.090536    29A      0.098736    30A      0.100998  
      31A      0.104029    32A      0.117179    33A      0.118108  
      34A      0.125621    35A      0.126270    36A      0.128035  
      37A      0.133069    38A      0.133133    39A      0.133921  
      40A      0.138403    41A      0.141490    42A      0.156889  
      43A      0.158325    44A      0.164592    45A      0.165737  
      46A      0.171075    47A      0.178408    48A      0.178980  
      49A      0.195283    50A      0.196042    51A      0.201289  
      52A      0.204793    53A      0.206162    54A      0.222726  
      55A      0.224904    56A      0.228033    57A      0.235361  
      58A      0.240236    59A      0.243626    60A      0.244965  
      61A      0.263853    62A      0.270803    63A      0.271127  
      64A      0.279080    65A      0.301010    66A      0.321710  
      67A      0.325148    68A      0.339877    69A      0.352358  
      70A      0.355357    71A      0.366324    72A      0.372681  
      73A      0.374907    74A      0.383517    75A      0.396061  
      76A      0.402741    77A      0.414998    78A      0.427281  
      79A      0.431854    80A      0.432132    81A      0.440975  
      82A      0.442125    83A      0.443385    84A      0.453393  
      85A      0.455807    86A      0.457220    87A      0.459816  
      88A      0.461675    89A      0.478655    90A      0.498543  
      91A      0.508690    92A      0.509524    93A      0.519227  
      94A      0.521917    95A      0.532935    96A      0.537843  
      97A      0.541560    98A      0.559125    99A      0.568633  
     100A      0.571635   101A      0.574432   102A      0.586318  
     103A      0.590538   104A      0.594969   105A      0.602413  
     106A      0.613163   107A      0.620953   108A      0.621052  
     109A      0.633324   110A      0.646110   111A      0.655295  
     112A      0.676161   113A      0.690640   114A      0.698041  
     115A      0.700391   116A      0.707606   117A      0.719256  
     118A      0.721667   119A      0.725115   120A      0.735479  
     121A      0.745164   122A      0.747709   123A      0.758592  
     124A      0.773318   125A      0.781481   126A      0.789503  
     127A      0.797920   128A      0.814249   129A      0.820732  
     130A      0.828504   131A      0.838230   132A      0.848393  
     133A      0.851750   134A      0.854913   135A      0.870826  
     136A      0.880885   137A      0.881395   138A      0.888767  
     139A      0.895500   140A      0.906950   141A      0.915965  
     142A      0.924815   143A      0.942582   144A      0.951913  
     145A      0.978222   146A      0.984850   147A      0.997006  
     148A      1.011149   149A      1.024014   150A      1.030080  
     151A      1.046606   152A      1.051492   153A      1.066503  
     154A      1.070977   155A      1.080836   156A      1.100852  
     157A      1.108044   158A      1.128058   159A      1.134196  
     160A      1.150235   161A      1.158662   162A      1.166165  
     163A      1.175168   164A      1.184852   165A      1.220548  
     166A      1.221599   167A      1.236919   168A      1.267878  
     169A      1.269556   170A      1.293620   171A      1.303342  
     172A      1.311399   173A      1.315034   174A      1.340577  
     175A      1.365807   176A      1.381728   177A      1.401043  
     178A      1.434893   179A      1.444622   180A      1.474691  
     181A      1.493129   182A      1.506925   183A      1.512027  
     184A      1.526129   185A      1.560989   186A      1.590882  
     187A      1.608669   188A      1.637437   189A      1.669472  
     190A      1.676621   191A      1.688802   192A      1.703634  
     193A      1.723950   194A      1.749215   195A      1.764373  
     196A      1.805048   197A      1.875632   198A      1.932390  
     199A      1.943558   200A      1.988067   201A      2.021445  
     202A      2.040984   203A      2.057611   204A      2.088839  
     205A      2.108993   206A      2.134752   207A      2.144687  
     208A      2.168032   209A      2.190005   210A      2.200827  
     211A      2.216558   212A      2.230457   213A      2.233773  
     214A      2.261779   215A      2.275825   216A      2.277666  
     217A      2.289181   218A      2.307640   219A      2.335627  
     220A      2.360716   221A      2.380488   222A      2.389130  
     223A      2.393822   224A      2.394458   225A      2.435246  
     226A      2.443800   227A      2.464967   228A      2.478241  
     229A      2.499816   230A      2.513539   231A      2.531798  
     232A      2.548741   233A      2.570232   234A      2.584716  
     235A      2.631258   236A      2.642961   237A      2.667444  
     238A      2.702942   239A      2.718811   240A      2.733029  
     241A      2.826838   242A      2.827831   243A      2.834751  
     244A      2.869731   245A      2.889950   246A      2.901587  
     247A      2.918598   248A      2.945070   249A      2.999157  
     250A      3.027991   251A      3.055324   252A      3.089753  
     253A      3.092358   254A      3.122730   255A      3.139955  
     256A      3.181896   257A      3.188930   258A      3.222008  
     259A      3.254064   260A      3.289115   261A      3.297865  
     262A      3.355691   263A      3.380235   264A      3.395523  
     265A      3.423419   266A      3.448221   267A      3.487089  
     268A      3.497434   269A      3.520727   270A      3.633485  
     271A      3.666874   272A      3.686563   273A      3.735543  
     274A      3.770009   275A      3.851090   276A      3.889327  
     277A      3.964325   278A      4.035440   279A      4.094685  
     280A      4.209428   281A      4.244016   282A      4.448359  
     283A      4.463235   284A      4.658348   285A      4.707973  
     286A      4.749863   287A      4.810713   288A      4.994798  
     289A      5.076736   290A      5.241384   291A      5.531176  
     292A      5.668889   293A      5.826784   294A      6.106632  
     295A      6.318256   296A      6.708317   297A      6.967805  
     298A     18.111116   299A     18.647793   300A     19.373525  
     301A     25.245486   302A     25.704888  

    Final Occupation by Irrep:
              A 
    DOCC [    18 ]

  @DF-RHF Final Energy:  -224.76233952132995

   => Energetics <=

    Nuclear Repulsion Energy =            166.6240564503272026
    One-Electron Energy =                -633.4992733889985175
    Two-Electron Energy =                 242.1128774173413660
    Total Energy =                       -224.7623395213299489

Computation Completed


Properties will be evaluated at   0.000000,   0.000000,   0.000000 [a0]

Properties computed using the SCF density matrix

  Nuclear Dipole Moment: [e a0]
     X:   162.5886      Y:  -104.5054      Z:    23.1563

  Electronic Dipole Moment: [e a0]
     X:  -162.9913      Y:   105.1370      Z:   -22.5767

  Dipole Moment: [e a0]
     X:    -0.4027      Y:     0.6317      Z:     0.5796     Total:     0.9472

  Dipole Moment: [D]
     X:    -1.0235      Y:     1.6055      Z:     1.4733     Total:     2.4075


*** tstop() called on ds1 at Mon Oct  4 14:37:16 2021
Module time:
	user time   =      15.89 seconds =       0.26 minutes
	system time =       0.36 seconds =       0.01 minutes
	total time  =          4 seconds =       0.07 minutes
Total time:
	user time   =      38.09 seconds =       0.63 minutes
	system time =       0.91 seconds =       0.02 minutes
	total time  =          9 seconds =       0.15 minutes

  //>>>>>>>>>>>>>>>>>>>>>>>>>>>>>>>>>>>//
  //            Monomer B HF           //
  //<<<<<<<<<<<<<<<<<<<<<<<<<<<<<<<<<<<//


*** tstart() called on ds1
*** at Mon Oct  4 14:37:16 2021

   => Loading Basis Set <=

    Name: AUG-CC-PVDZ
    Role: ORBITAL
    Keyword: BASIS
    atoms 1-2, 10-11 entry N          line   218 file /theoryfs2/ds/csargent/miniconda3/envs/cle/share/psi4/basis/aug-cc-pvdz.gbs 
    atoms 3-6, 12-15 entry H          line    40 file /theoryfs2/ds/csargent/miniconda3/envs/cle/share/psi4/basis/aug-cc-pvdz.gbs 
    atoms 7-9, 16-18 entry C          line   182 file /theoryfs2/ds/csargent/miniconda3/envs/cle/share/psi4/basis/aug-cc-pvdz.gbs 


         ---------------------------------------------------------
                                   SCF
               by Justin Turney, Rob Parrish, Andy Simmonett
                          and Daniel G. A. Smith
                              RHF Reference
                        6 Threads,   6675 MiB Core
         ---------------------------------------------------------

  ==> Geometry <==

    Molecular point group: c1
    Full point group: C1

    Geometry (in Bohr), charge = 0, multiplicity = 1:

       Center              X                  Y                   Z               Mass       
    ------------   -----------------  -----------------  -----------------  -----------------
      Gh(N)           6.279812100000    -4.253033720000     0.193138650000    14.003074004430
      Gh(N)           6.068707770000    -2.281256970000     1.805443170000    14.003074004430
      Gh(H)           3.668711560000    -5.646289410000    -1.966840010000     1.007825032230
      Gh(H)           0.690345210000    -2.375456940000    -0.428642360000     1.007825032230
      Gh(H)           3.359174420000     0.176506010000     3.092650170000     1.007825032230
      Gh(H)           7.352667820000    -1.994613110000     2.906807020000     1.007825032230
      Gh(C)           3.779525860000    -1.215084530000     1.768581720000    12.000000000000
      Gh(C)           2.382429980000    -2.555055380000     0.046076810000    12.000000000000
      Gh(C)           4.017714680000    -4.384104900000    -0.887618630000    12.000000000000
         N          -16.935473350000    28.148427370000   -12.946176880000    14.003074004430
         N          -17.146577680000    26.176650620000   -14.558481400000    14.003074004430
         H          -19.546573890000    29.541683060000   -10.786198220000     1.007825032230
         H          -22.524940250000    26.270850600000   -12.324395870000     1.007825032230
         H          -19.856111030000    23.718887640000   -15.845688400000     1.007825032230
         H          -15.862617630000    25.890006760000   -15.659845250000     1.007825032230
         C          -19.435759600000    25.110478180000   -14.521619950000    12.000000000000
         C          -20.832855470000    26.450449030000   -12.799115050000    12.000000000000
         C          -19.197570770000    28.279498550000   -11.865419600000    12.000000000000

  Running in c1 symmetry.

  Rotational constants: A =      0.06145  B =      0.00069  C =      0.00069 [cm^-1]
  Rotational constants: A =   1842.30328  B =     20.75899  C =     20.68968 [MHz]
  Nuclear repulsion =  166.624056406263378

  Charge       = 0
  Multiplicity = 1
  Electrons    = 36
  Nalpha       = 18
  Nbeta        = 18

  ==> Algorithm <==

  SCF Algorithm Type is DF.
  DIIS enabled.
  MOM disabled.
  Fractional occupation disabled.
  Guess Type is SAD.
  Energy threshold   = 1.00e-10
  Density threshold  = 1.00e-10
  Integral threshold = 1.00e-12

  ==> Primary Basis <==

  Basis Set: AUG-CC-PVDZ
    Blend: AUG-CC-PVDZ
    Number of shells: 130
    Number of basis functions: 302
    Number of Cartesian functions: 322
    Spherical Harmonics?: true
    Max angular momentum: 2

   => Loading Basis Set <=

    Name: (AUG-CC-PVDZ AUX)
    Role: JKFIT
    Keyword: DF_BASIS_SCF
    atoms 1-2, 10-11 entry N          line   212 file /theoryfs2/ds/csargent/miniconda3/envs/cle/share/psi4/basis/aug-cc-pvdz-jkfit.gbs 
    atoms 3-6, 12-15 entry H          line    70 file /theoryfs2/ds/csargent/miniconda3/envs/cle/share/psi4/basis/aug-cc-pvdz-jkfit.gbs 
    atoms 7-9, 16-18 entry C          line   154 file /theoryfs2/ds/csargent/miniconda3/envs/cle/share/psi4/basis/aug-cc-pvdz-jkfit.gbs 

  ==> Integral Setup <==

  ==> DiskDFJK: Density-Fitted J/K Matrices <==

    J tasked:                  Yes
    K tasked:                  Yes
    wK tasked:                  No
    OpenMP threads:              6
    Integrals threads:           6
    Memory [MiB]:             5006
    Algorithm:                Core
    Integral Cache:           LOAD
    Schwarz Cutoff:          1E-12
    Fitting Condition:       1E-10

   => Auxiliary Basis Set <=

  Basis Set: (AUG-CC-PVDZ AUX)
    Blend: AUG-CC-PVDZ-JKFIT
    Number of shells: 376
    Number of basis functions: 1116
    Number of Cartesian functions: 1290
    Spherical Harmonics?: true
    Max angular momentum: 3

  Minimum eigenvalue in the overlap matrix is 3.0333777143E-05.
  Reciprocal condition number of the overlap matrix is 2.4874860254E-06.
    Using symmetric orthogonalization.

  ==> Pre-Iterations <==

  SCF Guess: Superposition of Atomic Densities via on-the-fly atomic UHF (no occupation information).

   -------------------------
    Irrep   Nso     Nmo    
   -------------------------
     A        302     302 
   -------------------------
    Total     302     302
   -------------------------

  ==> Iterations <==

                           Total Energy        Delta E     RMS |[F,P]|

   @DF-RHF iter SAD:  -224.72194800943649   -2.24722e+02   0.00000e+00 
   @DF-RHF iter   1:  -224.63549170204004    8.64563e-02   1.50472e-03 DIIS
   @DF-RHF iter   2:  -224.73984613466101   -1.04354e-01   6.88462e-04 DIIS
   @DF-RHF iter   3:  -224.76075487350789   -2.09087e-02   1.48626e-04 DIIS
   @DF-RHF iter   4:  -224.76213931728998   -1.38444e-03   6.05310e-05 DIIS
   @DF-RHF iter   5:  -224.76231767205098   -1.78355e-04   1.19893e-05 DIIS
   @DF-RHF iter   6:  -224.76233462952607   -1.69575e-05   4.96772e-06 DIIS
   @DF-RHF iter   7:  -224.76233858556390   -3.95604e-06   2.18806e-06 DIIS
   @DF-RHF iter   8:  -224.76233934630636   -7.60742e-07   1.01700e-06 DIIS
   @DF-RHF iter   9:  -224.76233951394849   -1.67642e-07   2.83302e-07 DIIS
   @DF-RHF iter  10:  -224.76233952276897   -8.82048e-09   8.55547e-08 DIIS
   @DF-RHF iter  11:  -224.76233952345865   -6.89681e-10   1.99714e-08 DIIS
   @DF-RHF iter  12:  -224.76233952350447   -4.58158e-11   5.81092e-09 DIIS
   @DF-RHF iter  13:  -224.76233952350930   -4.83169e-12   2.83097e-09 DIIS
   @DF-RHF iter  14:  -224.76233952351004   -7.38964e-13   9.75191e-10 DIIS
   @DF-RHF iter  15:  -224.76233952351029   -2.55795e-13   4.15548e-10 DIIS
   @DF-RHF iter  16:  -224.76233952350984    4.54747e-13   1.25998e-10 DIIS
   @DF-RHF iter  17:  -224.76233952351021   -3.69482e-13   4.47776e-11 DIIS
  Energy and wave function converged.


  ==> Post-Iterations <==

    Orbital Energies [Eh]
    ---------------------

    Doubly Occupied:                                                      

       1A    -15.636223     2A    -15.592313     3A    -11.279894  
       4A    -11.237784     5A    -11.209891     6A     -1.386922  
       7A     -1.121901     8A     -1.066898     9A     -0.872768  
      10A     -0.837061    11A     -0.757292    12A     -0.645746  
      13A     -0.620834    14A     -0.609140    15A     -0.583920  
      16A     -0.461404    17A     -0.370721    18A     -0.346048  

    Virtual:                                                              

      19A      0.022724    20A      0.030764    21A      0.040070  
      22A      0.042368    23A      0.044181    24A      0.049159  
      25A      0.063520    26A      0.065933    27A      0.084020  
      28A      0.090779    29A      0.099012    30A      0.100998  
      31A      0.104029    32A      0.117179    33A      0.118383  
      34A      0.125865    35A      0.126270    36A      0.128319  
      37A      0.133069    38A      0.133411    39A      0.134170  
      40A      0.138403    41A      0.141490    42A      0.156889  
      43A      0.158567    44A      0.164592    45A      0.166011  
      46A      0.171075    47A      0.178408    48A      0.179248  
      49A      0.195561    50A      0.196042    51A      0.201571  
      52A      0.204793    53A      0.206162    54A      0.223001  
      55A      0.225185    56A      0.228290    57A      0.235624  
      58A      0.240236    59A      0.243626    60A      0.244965  
      61A      0.264106    62A      0.271089    63A      0.271127  
      64A      0.279080    65A      0.301010    66A      0.321967  
      67A      0.325148    68A      0.340159    69A      0.352358  
      70A      0.355357    71A      0.366604    72A      0.372944  
      73A      0.374907    74A      0.383783    75A      0.396061  
      76A      0.402741    77A      0.414998    78A      0.427549  
      79A      0.432122    80A      0.432132    81A      0.441232  
      82A      0.442393    83A      0.443385    84A      0.453393  
      85A      0.456075    86A      0.457481    87A      0.459816  
      88A      0.461952    89A      0.478655    90A      0.498543  
      91A      0.508690    92A      0.509806    93A      0.519500  
      94A      0.521917    95A      0.533217    96A      0.538097  
      97A      0.541560    98A      0.559381    99A      0.568919  
     100A      0.571900   101A      0.574432   102A      0.586318  
     103A      0.590538   104A      0.595238   105A      0.602413  
     106A      0.613422   107A      0.620953   108A      0.621318  
     109A      0.633596   110A      0.646110   111A      0.655295  
     112A      0.676162   113A      0.690913   114A      0.698041  
     115A      0.700391   116A      0.707881   117A      0.719517  
     118A      0.721667   119A      0.725115   120A      0.735747  
     121A      0.745422   122A      0.747709   123A      0.758592  
     124A      0.773318   125A      0.781481   126A      0.789758  
     127A      0.798205   128A      0.814520   129A      0.820995  
     130A      0.828504   131A      0.838230   132A      0.848394  
     133A      0.852016   134A      0.855192   135A      0.871091  
     136A      0.881147   137A      0.881395   138A      0.888767  
     139A      0.895761   140A      0.906950   141A      0.916243  
     142A      0.924815   143A      0.942582   144A      0.952179  
     145A      0.978222   146A      0.984850   147A      0.997277  
     148A      1.011149   149A      1.024280   150A      1.030355  
     151A      1.046606   152A      1.051775   153A      1.066503  
     154A      1.071247   155A      1.081092   156A      1.100852  
     157A      1.108313   158A      1.128058   159A      1.134196  
     160A      1.150235   161A      1.158940   162A      1.166430  
     163A      1.175168   164A      1.185120   165A      1.220548  
     166A      1.221879   167A      1.237196   168A      1.268149  
     169A      1.269556   170A      1.293895   171A      1.303342  
     172A      1.311399   173A      1.315307   174A      1.340849  
     175A      1.365807   176A      1.381995   177A      1.401043  
     178A      1.435171   179A      1.444896   180A      1.474691  
     181A      1.493411   182A      1.507200   183A      1.512027  
     184A      1.526129   185A      1.560989   186A      1.590882  
     187A      1.608669   188A      1.637437   189A      1.669472  
     190A      1.676900   191A      1.689080   192A      1.703634  
     193A      1.723950   194A      1.749215   195A      1.764373  
     196A      1.805048   197A      1.875632   198A      1.932390  
     199A      1.943558   200A      1.988067   201A      2.021445  
     202A      2.041246   203A      2.057611   204A      2.088839  
     205A      2.109273   206A      2.135014   207A      2.144687  
     208A      2.168292   209A      2.190005   210A      2.200827  
     211A      2.216828   212A      2.230457   213A      2.234038  
     214A      2.262047   215A      2.275825   216A      2.277923  
     217A      2.289448   218A      2.307640   219A      2.335899  
     220A      2.360716   221A      2.380743   222A      2.389130  
     223A      2.393822   224A      2.394732   225A      2.435246  
     226A      2.444072   227A      2.464967   228A      2.478506  
     229A      2.500076   230A      2.513819   231A      2.531798  
     232A      2.549008   233A      2.570232   234A      2.584716  
     235A      2.631524   236A      2.642961   237A      2.667720  
     238A      2.703219   239A      2.719082   240A      2.733029  
     241A      2.826838   242A      2.828095   243A      2.834751  
     244A      2.870012   245A      2.890225   246A      2.901587  
     247A      2.918598   248A      2.945335   249A      2.999157  
     250A      3.028260   251A      3.055324   252A      3.090031  
     253A      3.092358   254A      3.122730   255A      3.140220  
     256A      3.182165   257A      3.188930   258A      3.222008  
     259A      3.254337   260A      3.289383   261A      3.297865  
     262A      3.355968   263A      3.380235   264A      3.395795  
     265A      3.423701   266A      3.448484   267A      3.487362  
     268A      3.497700   269A      3.520727   270A      3.633752  
     271A      3.667147   272A      3.686563   273A      3.735811  
     274A      3.770287   275A      3.851374   276A      3.889327  
     277A      3.964595   278A      4.035717   279A      4.094961  
     280A      4.209428   281A      4.244290   282A      4.448630  
     283A      4.463235   284A      4.658619   285A      4.708250  
     286A      4.750135   287A      4.810989   288A      4.995071  
     289A      5.077011   290A      5.241660   291A      5.531449  
     292A      5.669169   293A      5.827066   294A      6.106905  
     295A      6.318514   296A      6.708577   297A      6.968077  
     298A     18.111379   299A     18.648061   300A     19.373797  
     301A     25.245760   302A     25.705170  

    Final Occupation by Irrep:
              A 
    DOCC [    18 ]

  @DF-RHF Final Energy:  -224.76233952351021

   => Energetics <=

    Nuclear Repulsion Energy =            166.6240564062633780
    One-Electron Energy =                -633.4992733129079170
    Two-Electron Energy =                 242.1128773831343324
    Total Energy =                       -224.7623395235102066

Computation Completed


Properties will be evaluated at   0.000000,   0.000000,   0.000000 [a0]

Properties computed using the SCF density matrix

  Nuclear Dipole Moment: [e a0]
     X:  -673.1617      Y:   964.7395      Z:  -482.2657

  Electronic Dipole Moment: [e a0]
     X:   672.7590      Y:  -965.3712      Z:   481.6860

  Dipole Moment: [e a0]
     X:    -0.4027      Y:    -0.6317      Z:    -0.5796     Total:     0.9472

  Dipole Moment: [D]
     X:    -1.0235      Y:    -1.6055      Z:    -1.4733     Total:     2.4075


*** tstop() called on ds1 at Mon Oct  4 14:37:19 2021
Module time:
	user time   =      15.76 seconds =       0.26 minutes
	system time =       0.33 seconds =       0.01 minutes
	total time  =          3 seconds =       0.05 minutes
Total time:
	user time   =      53.96 seconds =       0.90 minutes
	system time =       1.25 seconds =       0.02 minutes
	total time  =         12 seconds =       0.20 minutes
  Constructing Basis Sets for SAPT...

   => Loading Basis Set <=

    Name: (AUG-CC-PVDZ AUX)
    Role: RIFIT
    Keyword: DF_BASIS_SAPT
    atoms 1-2, 10-11 entry N          line   158 file /theoryfs2/ds/csargent/miniconda3/envs/cle/share/psi4/basis/aug-cc-pvdz-ri.gbs 
    atoms 3-6, 12-15 entry H          line    30 file /theoryfs2/ds/csargent/miniconda3/envs/cle/share/psi4/basis/aug-cc-pvdz-ri.gbs 
    atoms 7-9, 16-18 entry C          line   112 file /theoryfs2/ds/csargent/miniconda3/envs/cle/share/psi4/basis/aug-cc-pvdz-ri.gbs 


  //>>>>>>>>>>>>>>>>>>>>>>>>>>>>>>>>>>>//
  //               SAPT0               //
  //<<<<<<<<<<<<<<<<<<<<<<<<<<<<<<<<<<<//


*** tstart() called on ds1
*** at Mon Oct  4 14:37:19 2021

        SAPT0  
    Ed Hohenstein
     6 June 2009

      Orbital Information
  --------------------------
    NSO        =       302
    NMO        =       302
    NRI        =       904
    NOCC A     =        18
    NOCC B     =        18
    FOCC A     =         5
    FOCC B     =         5
    NVIR A     =       284
    NVIR B     =       284

    Elst10,r            =    -0.000010412792 [Eh]
    Exch10              =     0.000000000000 [Eh]
    Exch10 (S^2)        =     0.000000000000 [Eh]

    Iter     Energy [mEh]          dE [mEh]         Residual      Time [s]
       1      -0.00000713       0.000007129       0.029436807             0
       2      -0.00000653      -0.000000602       0.006781326             0
       3      -0.00000724       0.000000711       0.002376424             0
       4      -0.00000729       0.000000049       0.000963395             1
       5      -0.00000726      -0.000000024       0.000415561             1
       6      -0.00000726      -0.000000005       0.000136455             1
       7      -0.00000726       0.000000003       0.000061010             1
       8      -0.00000726       0.000000001       0.000018331             1
       9      -0.00000726      -0.000000000       0.000006497             1
      10      -0.00000726      -0.000000000       0.000001395             1
      11      -0.00000726       0.000000000       0.000000358             1

    CHF Iterations converged


    Iter     Energy [mEh]          dE [mEh]         Residual      Time [s]
       1      -0.00000486       0.000004861       0.020512198             1
       2      -0.00000441      -0.000000446       0.004645782             1
       3      -0.00000471       0.000000295       0.002356099             1
       4      -0.00000481       0.000000099       0.000384560             1
       5      -0.00000480      -0.000000012       0.000176421             1
       6      -0.00000480      -0.000000002       0.000062848             1
       7      -0.00000480       0.000000001       0.000028109             1
       8      -0.00000480       0.000000000       0.000011543             2
       9      -0.00000480      -0.000000000       0.000003862             2
      10      -0.00000480      -0.000000000       0.000001200             2
      11      -0.00000480       0.000000000       0.000000500             2

    CHF Iterations converged

    Ind20,r (A<-B)      =    -0.000000007262 [Eh]
    Ind20,r (B<-A)      =    -0.000000004797 [Eh]
    Ind20,r             =    -0.000000012059 [Eh]
    Exch-Ind20,r (A<-B) =     0.000000000000 [Eh]
    Exch-Ind20,r (B<-A) =     0.000000000000 [Eh]
    Exch-Ind20,r        =     0.000000000000 [Eh]
    Disp20              =    -0.000000255918 [Eh]
    Disp20 (SS)         =    -0.000000127959 [Eh]
    Disp20 (OS)         =    -0.000000127959 [Eh]
    Exch-Disp20         =     0.000000000000 [Eh]
    Exch-Disp20 (SS)    =     0.000000000000 [Eh]
    Exch-Disp20 (OS)    =     0.000000000000 [Eh]

    SAPT Results 
  --------------------------------------------------------------------------------------------------------
    Electrostatics                 -0.01041279 [mEh]      -0.00653413 [kcal/mol]      -0.02733878 [kJ/mol]
      Elst10,r                     -0.01041279 [mEh]      -0.00653413 [kcal/mol]      -0.02733878 [kJ/mol]

    Exchange                        0.00000000 [mEh]       0.00000000 [kcal/mol]       0.00000000 [kJ/mol]
      Exch10                        0.00000000 [mEh]       0.00000000 [kcal/mol]       0.00000000 [kJ/mol]
      Exch10(S^2)                   0.00000000 [mEh]       0.00000000 [kcal/mol]       0.00000000 [kJ/mol]

    Induction                       0.00005666 [mEh]       0.00003555 [kcal/mol]       0.00014876 [kJ/mol]
      Ind20,r                      -0.00001206 [mEh]      -0.00000757 [kcal/mol]      -0.00003166 [kJ/mol]
      Exch-Ind20,r                  0.00000000 [mEh]       0.00000000 [kcal/mol]       0.00000000 [kJ/mol]
      delta HF,r (2)                0.00006872 [mEh]       0.00004312 [kcal/mol]       0.00018042 [kJ/mol]

    Dispersion                     -0.00025592 [mEh]      -0.00016059 [kcal/mol]      -0.00067191 [kJ/mol]
      Disp20                       -0.00025592 [mEh]      -0.00016059 [kcal/mol]      -0.00067191 [kJ/mol]
      Exch-Disp20                   0.00000000 [mEh]       0.00000000 [kcal/mol]       0.00000000 [kJ/mol]
      Disp20 (SS)                  -0.00012796 [mEh]      -0.00008030 [kcal/mol]      -0.00033596 [kJ/mol]
      Disp20 (OS)                  -0.00012796 [mEh]      -0.00008030 [kcal/mol]      -0.00033596 [kJ/mol]
      Exch-Disp20 (SS)              0.00000000 [mEh]       0.00000000 [kcal/mol]       0.00000000 [kJ/mol]
      Exch-Disp20 (OS)              0.00000000 [mEh]       0.00000000 [kcal/mol]       0.00000000 [kJ/mol]

  Total HF                         -0.01035613 [mEh]      -0.00649857 [kcal/mol]      -0.02719002 [kJ/mol]
  Total SAPT0                      -0.01061205 [mEh]      -0.00665916 [kcal/mol]      -0.02786194 [kJ/mol]

  Special recipe for scaled SAPT0 (see Manual):
    Electrostatics sSAPT0          -0.01041279 [mEh]      -0.00653413 [kcal/mol]      -0.02733878 [kJ/mol]
    Exchange sSAPT0                 0.00000000 [mEh]       0.00000000 [kcal/mol]       0.00000000 [kJ/mol]
    Induction sSAPT0                0.00005666 [mEh]       0.00003555 [kcal/mol]       0.00014876 [kJ/mol]
    Dispersion sSAPT0              -0.00025592 [mEh]      -0.00016059 [kcal/mol]      -0.00067191 [kJ/mol]
  Total sSAPT0                     -0.01061205 [mEh]      -0.00665916 [kcal/mol]      -0.02786194 [kJ/mol]
  --------------------------------------------------------------------------------------------------------

*** tstop() called on ds1 at Mon Oct  4 14:37:28 2021
Module time:
	user time   =      44.09 seconds =       0.73 minutes
	system time =       3.82 seconds =       0.06 minutes
	total time  =          9 seconds =       0.15 minutes
Total time:
	user time   =      98.77 seconds =       1.65 minutes
	system time =       5.10 seconds =       0.09 minutes
	total time  =         21 seconds =       0.35 minutes


Warning! sapt0 does not have an associated derived wavefunction.The returned wavefunction is the dimer SCF wavefunction.


    Psi4 stopped on: Monday, 04 October 2021 02:37PM
    Psi4 wall time for execution: 0:00:21.13

*** Psi4 exiting successfully. Buy a developer a beer!
