
    -----------------------------------------------------------------------
          Psi4: An Open-Source Ab Initio Electronic Structure Package
                               Psi4 1.4rc3 

                         Git: Rev {HEAD} 080dba6 


    D. G. A. Smith, L. A. Burns, A. C. Simmonett, R. M. Parrish,
    M. C. Schieber, R. Galvelis, P. Kraus, H. Kruse, R. Di Remigio,
    A. Alenaizan, A. M. James, S. Lehtola, J. P. Misiewicz, M. Scheurer,
    R. A. Shaw, J. B. Schriber, Y. Xie, Z. L. Glick, D. A. Sirianni,
    J. S. O'Brien, J. M. Waldrop, A. Kumar, E. G. Hohenstein,
    B. P. Pritchard, B. R. Brooks, H. F. Schaefer III, A. Yu. Sokolov,
    K. Patkowski, A. E. DePrince III, U. Bozkaya, R. A. King,
    F. A. Evangelista, J. M. Turney, T. D. Crawford, C. D. Sherrill,
    J. Chem. Phys. 152(18) 184108 (2020). https://doi.org/10.1063/5.0006002

                            Additional Code Authors
    E. T. Seidl, C. L. Janssen, E. F. Valeev, M. L. Leininger,
    J. F. Gonthier, R. M. Richard, H. R. McAlexander, M. Saitow, X. Wang,
    P. Verma, and M. H. Lechner

             Previous Authors, Complete List of Code Contributors,
                       and Citations for Specific Modules
    https://github.com/psi4/psi4/blob/master/codemeta.json
    https://github.com/psi4/psi4/graphs/contributors
    http://psicode.org/psi4manual/master/introduction.html#citing-psifour

    -----------------------------------------------------------------------


    Psi4 started on: Monday, 04 October 2021 02:13PM

    Process ID: 9857
    Host:       ds1
    PSIDATADIR: /theoryfs2/ds/csargent/miniconda3/envs/cle/share/psi4
    Memory:     500.0 MiB
    Threads:    6
    
  ==> Input File <==

--------------------------------------------------------------------------
# PSI4 file produced by CrystaLattE

# Generated from:               pyrazole.xyz
# Psithon input for N-mer:      2mer-0+413
# Number of atoms per monomer:  [9, 9]
# Number of replicas:           1
# COM priority:                 2.169003664309e-05
# Minimum COM separations:      18.975 
# Separation priority:          3.600067143490e-05
# Minimum monomer separations:  16.026 
# Cutoff priority:              1.188723370083e-06
# Nuclear repulsion energy:     369.3511955218253

memory 7 GB

molecule Dimer_0_413 {
  N            6.27981210      -4.25303372       0.19313865 
  N            6.06870777      -2.28125697       1.80544317 
  H            3.66871156      -5.64628941      -1.96684001 
  H            0.69034521      -2.37545694      -0.42864236 
  H            3.35917442       0.17650601       3.09265017 
  H            7.35266782      -1.99461311       2.90680702 
  C            3.77952586      -1.21508453       1.76858172 
  C            2.38242998      -2.55505538       0.04607681 
  C            4.01771468      -4.38410490      -0.88761863 
--
  N            2.79813836     -37.97519749       1.58785821 
  N            2.91700062     -40.01310452       0.05068450 
  H            5.47130109     -35.57428752       2.30588857 
  H            8.36593765     -38.01682626      -0.44924894 
  H            5.42951358     -41.72987528      -2.35388525 
  H            1.45459240     -40.82308158      -0.33508083 
  C            5.19983702     -40.34328019      -0.97836435 
  C            6.68282945     -38.41360798      -0.08844188 
  C            5.12152412     -37.02844016       1.50325606 
units = au
no_com
no_reorient
}

set {
  e_convergence 10
  d_convergence 10
  scf_type df
  mp2_type df
  cc_type df
  freeze_core true
}

energy('sapt0/aug-cc-pvdz')

--------------------------------------------------------------------------

  Memory set to   6.519 GiB by Python driver.

Scratch directory: /scratch/csargent/psi4.7158.66302/

Scratch directory: /scratch/csargent/psi4.7158.66302/

  //>>>>>>>>>>>>>>>>>>>>>>>>>>>>>>>>>>>//
  //              Dimer HF             //
  //<<<<<<<<<<<<<<<<<<<<<<<<<<<<<<<<<<<//


*** tstart() called on ds1
*** at Mon Oct  4 14:13:07 2021

   => Loading Basis Set <=

    Name: AUG-CC-PVDZ
    Role: ORBITAL
    Keyword: BASIS
    atoms 1-2, 10-11 entry N          line   218 file /theoryfs2/ds/csargent/miniconda3/envs/cle/share/psi4/basis/aug-cc-pvdz.gbs 
    atoms 3-6, 12-15 entry H          line    40 file /theoryfs2/ds/csargent/miniconda3/envs/cle/share/psi4/basis/aug-cc-pvdz.gbs 
    atoms 7-9, 16-18 entry C          line   182 file /theoryfs2/ds/csargent/miniconda3/envs/cle/share/psi4/basis/aug-cc-pvdz.gbs 


         ---------------------------------------------------------
                                   SCF
               by Justin Turney, Rob Parrish, Andy Simmonett
                          and Daniel G. A. Smith
                              RHF Reference
                        6 Threads,   6675 MiB Core
         ---------------------------------------------------------

  ==> Geometry <==

    Molecular point group: c1
    Full point group: C1

    Geometry (in Bohr), charge = 0, multiplicity = 1:

       Center              X                  Y                   Z               Mass       
    ------------   -----------------  -----------------  -----------------  -----------------
         N            6.279812100000    -4.253033720000     0.193138650000    14.003074004430
         N            6.068707770000    -2.281256970000     1.805443170000    14.003074004430
         H            3.668711560000    -5.646289410000    -1.966840010000     1.007825032230
         H            0.690345210000    -2.375456940000    -0.428642360000     1.007825032230
         H            3.359174420000     0.176506010000     3.092650170000     1.007825032230
         H            7.352667820000    -1.994613110000     2.906807020000     1.007825032230
         C            3.779525860000    -1.215084530000     1.768581720000    12.000000000000
         C            2.382429980000    -2.555055380000     0.046076810000    12.000000000000
         C            4.017714680000    -4.384104900000    -0.887618630000    12.000000000000
         N            2.798138360000   -37.975197490000     1.587858210000    14.003074004430
         N            2.917000620000   -40.013104520000     0.050684500000    14.003074004430
         H            5.471301090000   -35.574287520000     2.305888570000     1.007825032230
         H            8.365937650000   -38.016826260000    -0.449248940000     1.007825032230
         H            5.429513580000   -41.729875280000    -2.353885250000     1.007825032230
         H            1.454592400000   -40.823081580000    -0.335080830000     1.007825032230
         C            5.199837020000   -40.343280190000    -0.978364350000    12.000000000000
         C            6.682829450000   -38.413607980000    -0.088441880000    12.000000000000
         C            5.121524120000   -37.028440160000     1.503256060000    12.000000000000

  Running in c1 symmetry.

  Rotational constants: A =      0.03521  B =      0.00057  C =      0.00057 [cm^-1]
  Rotational constants: A =   1055.61785  B =     17.19799  C =     16.97450 [MHz]
  Nuclear repulsion =  369.351195721195893

  Charge       = 0
  Multiplicity = 1
  Electrons    = 72
  Nalpha       = 36
  Nbeta        = 36

  ==> Algorithm <==

  SCF Algorithm Type is DF.
  DIIS enabled.
  MOM disabled.
  Fractional occupation disabled.
  Guess Type is SAD.
  Energy threshold   = 1.00e-10
  Density threshold  = 1.00e-10
  Integral threshold = 1.00e-12

  ==> Primary Basis <==

  Basis Set: AUG-CC-PVDZ
    Blend: AUG-CC-PVDZ
    Number of shells: 130
    Number of basis functions: 302
    Number of Cartesian functions: 322
    Spherical Harmonics?: true
    Max angular momentum: 2

   => Loading Basis Set <=

    Name: (AUG-CC-PVDZ AUX)
    Role: JKFIT
    Keyword: DF_BASIS_SCF
    atoms 1-2, 10-11 entry N          line   212 file /theoryfs2/ds/csargent/miniconda3/envs/cle/share/psi4/basis/aug-cc-pvdz-jkfit.gbs 
    atoms 3-6, 12-15 entry H          line    70 file /theoryfs2/ds/csargent/miniconda3/envs/cle/share/psi4/basis/aug-cc-pvdz-jkfit.gbs 
    atoms 7-9, 16-18 entry C          line   154 file /theoryfs2/ds/csargent/miniconda3/envs/cle/share/psi4/basis/aug-cc-pvdz-jkfit.gbs 

  ==> Integral Setup <==

  ==> DiskDFJK: Density-Fitted J/K Matrices <==

    J tasked:                  Yes
    K tasked:                  Yes
    wK tasked:                  No
    OpenMP threads:              6
    Integrals threads:           6
    Memory [MiB]:             5006
    Algorithm:                Core
    Integral Cache:           SAVE
    Schwarz Cutoff:          1E-12
    Fitting Condition:       1E-10

   => Auxiliary Basis Set <=

  Basis Set: (AUG-CC-PVDZ AUX)
    Blend: AUG-CC-PVDZ-JKFIT
    Number of shells: 376
    Number of basis functions: 1116
    Number of Cartesian functions: 1290
    Spherical Harmonics?: true
    Max angular momentum: 3

  Minimum eigenvalue in the overlap matrix is 3.0324468391E-05.
  Reciprocal condition number of the overlap matrix is 2.4867198626E-06.
    Using symmetric orthogonalization.

  ==> Pre-Iterations <==

  SCF Guess: Superposition of Atomic Densities via on-the-fly atomic UHF (no occupation information).

   -------------------------
    Irrep   Nso     Nmo    
   -------------------------
     A        302     302 
   -------------------------
    Total     302     302
   -------------------------

  ==> Iterations <==

                           Total Energy        Delta E     RMS |[F,P]|

   @DF-RHF iter SAD:  -449.44445658353584   -4.49444e+02   0.00000e+00 
   @DF-RHF iter   1:  -449.27101569821502    1.73441e-01   2.12826e-03 DIIS
   @DF-RHF iter   2:  -449.47975421757343   -2.08739e-01   9.73977e-04 DIIS
   @DF-RHF iter   3:  -449.52160165323090   -4.18474e-02   2.10232e-04 DIIS
   @DF-RHF iter   4:  -449.52437151383975   -2.76986e-03   8.56111e-05 DIIS
   @DF-RHF iter   5:  -449.52472831065069   -3.56797e-04   1.69428e-05 DIIS
   @DF-RHF iter   6:  -449.52476220414610   -3.38935e-05   7.01941e-06 DIIS
   @DF-RHF iter   7:  -449.52477011427686   -7.91013e-06   3.07854e-06 DIIS
   @DF-RHF iter   8:  -449.52477162760459   -1.51333e-06   1.43712e-06 DIIS
   @DF-RHF iter   9:  -449.52477196094230   -3.33338e-07   3.99882e-07 DIIS
   @DF-RHF iter  10:  -449.52477197847446   -1.75322e-08   1.21187e-07 DIIS
   @DF-RHF iter  11:  -449.52477197985309   -1.37862e-09   2.82264e-08 DIIS
   @DF-RHF iter  12:  -449.52477197994529   -9.22000e-11   8.20460e-09 DIIS
   @DF-RHF iter  13:  -449.52477197995364   -8.35598e-12   3.99690e-09 DIIS
   @DF-RHF iter  14:  -449.52477197995552   -1.87583e-12   1.37647e-09 DIIS
   @DF-RHF iter  15:  -449.52477197995597   -4.54747e-13   5.86828e-10 DIIS
   @DF-RHF iter  16:  -449.52477197995546    5.11591e-13   1.78791e-10 DIIS
   @DF-RHF iter  17:  -449.52477197995631   -8.52651e-13   6.40051e-11 DIIS
  Energy and wave function converged.


  ==> Post-Iterations <==

    Orbital Energies [Eh]
    ---------------------

    Doubly Occupied:                                                      

       1A    -15.635839     2A    -15.635731     3A    -15.591926  
       4A    -15.591779     5A    -11.279509     6A    -11.279398  
       7A    -11.237392     8A    -11.237234     9A    -11.209502  
      10A    -11.209365    11A     -1.386536    12A     -1.386497  
      13A     -1.121515    14A     -1.121385    15A     -1.066512  
      16A     -1.066415    17A     -0.872379    18A     -0.872243  
      19A     -0.836671    20A     -0.836519    21A     -0.756909  
      22A     -0.756767    23A     -0.645358    24A     -0.645229  
      25A     -0.620444    26A     -0.620307    27A     -0.608755  
      28A     -0.608674    29A     -0.583533    30A     -0.583392  
      31A     -0.461018    32A     -0.460905    33A     -0.370331  
      34A     -0.370199    35A     -0.345661    36A     -0.345546  

    Virtual:                                                              

      37A      0.031118    38A      0.031193    39A      0.042786  
      40A      0.043000    41A      0.049541    42A      0.049667  
      43A      0.063906    44A      0.064065    45A      0.101382  
      46A      0.101478    47A      0.104400    48A      0.104528  
      49A      0.117603    50A      0.117769    51A      0.126651  
      52A      0.126769    53A      0.133447    54A      0.133575  
      55A      0.138794    56A      0.138950    57A      0.141889  
      58A      0.142054    59A      0.157278    60A      0.157438  
      61A      0.164992    62A      0.165170    63A      0.171461  
      64A      0.171583    65A      0.178803    66A      0.178960  
      67A      0.196401    68A      0.196492    69A      0.205180  
      70A      0.205298    71A      0.206548    72A      0.206662  
      73A      0.240631    74A      0.240763    75A      0.244005  
      76A      0.244122    77A      0.245343    78A      0.245468  
      79A      0.271523    80A      0.271657    81A      0.279443  
      82A      0.279548    83A      0.301406    84A      0.301571  
      85A      0.325526    86A      0.325628    87A      0.352738  
      88A      0.352855    89A      0.355745    90A      0.355896  
      91A      0.375296    92A      0.375421    93A      0.396438  
      94A      0.396563    95A      0.403121    96A      0.403249  
      97A      0.415390    98A      0.415557    99A      0.432513  
     100A      0.432634   101A      0.443785   102A      0.443924  
     103A      0.453778   104A      0.453922   105A      0.460216  
     106A      0.460354   107A      0.479034   108A      0.479147  
     109A      0.498938   110A      0.499080   111A      0.509085  
     112A      0.509224   113A      0.522296   114A      0.522455  
     115A      0.541954   116A      0.542099   117A      0.574813  
     118A      0.574927   119A      0.586707   120A      0.586834  
     121A      0.590925   122A      0.591065   123A      0.602795  
     124A      0.602932   125A      0.621341   126A      0.621495  
     127A      0.646500   128A      0.646634   129A      0.655682  
     130A      0.655832   131A      0.676553   132A      0.676692  
     133A      0.698431   134A      0.698566   135A      0.700778  
     136A      0.700899   137A      0.722054   138A      0.722165  
     139A      0.725500   140A      0.725632   141A      0.748098  
     142A      0.748235   143A      0.758980   144A      0.759167  
     145A      0.773710   146A      0.773821   147A      0.781867  
     148A      0.781976   149A      0.828895   150A      0.829035  
     151A      0.838614   152A      0.838745   153A      0.848780  
     154A      0.848905   155A      0.881780   156A      0.881917  
     157A      0.889153   158A      0.889274   159A      0.907340  
     160A      0.907470   161A      0.925197   162A      0.925305  
     163A      0.942970   164A      0.943112   165A      0.978621  
     166A      0.978738   167A      0.985237   168A      0.985366  
     169A      1.011537   170A      1.011682   171A      1.046989  
     172A      1.047124   173A      1.066888   174A      1.067017  
     175A      1.101233   176A      1.101349   177A      1.128446  
     178A      1.128620   179A      1.134581   180A      1.134661  
     181A      1.150626   182A      1.150758   183A      1.175557  
     184A      1.175690   185A      1.220936   186A      1.221053  
     187A      1.269941   188A      1.270084   189A      1.303730  
     190A      1.303904   191A      1.311786   192A      1.311939  
     193A      1.366192   194A      1.366312   195A      1.401433  
     196A      1.401563   197A      1.475073   198A      1.475205  
     199A      1.512413   200A      1.512524   201A      1.526518  
     202A      1.526656   203A      1.561377   204A      1.561494  
     205A      1.591269   206A      1.591404   207A      1.609059  
     208A      1.609199   209A      1.637831   210A      1.637963  
     211A      1.669860   212A      1.670013   213A      1.704021  
     214A      1.704147   215A      1.724340   216A      1.724470  
     217A      1.749605   218A      1.749770   219A      1.764759  
     220A      1.764877   221A      1.805439   222A      1.805544  
     223A      1.876017   224A      1.876097   225A      1.932779  
     226A      1.932922   227A      1.943949   228A      1.944086  
     229A      1.988458   230A      1.988666   231A      2.021834  
     232A      2.021969   233A      2.057999   234A      2.058177  
     235A      2.089223   236A      2.089316   237A      2.145075  
     238A      2.145221   239A      2.190390   240A      2.190510  
     241A      2.201218   242A      2.201351   243A      2.230843  
     244A      2.230962   245A      2.276218   246A      2.276363  
     247A      2.308025   248A      2.308144   249A      2.361107  
     250A      2.361168   251A      2.389516   252A      2.389631  
     253A      2.394201   254A      2.394246   255A      2.435630  
     256A      2.435700   257A      2.465348   258A      2.465435  
     259A      2.532184   260A      2.532296   261A      2.570620  
     262A      2.570708   263A      2.585097   264A      2.585316  
     265A      2.643346   266A      2.643465   267A      2.733410  
     268A      2.733514   269A      2.827226   270A      2.827323  
     271A      2.835139   272A      2.835222   273A      2.901973  
     274A      2.902048   275A      2.918980   276A      2.919061  
     277A      2.999543   278A      2.999706   279A      3.055708  
     280A      3.055816   281A      3.092745   282A      3.092948  
     283A      3.123116   284A      3.123213   285A      3.189320  
     286A      3.189532   287A      3.222396   288A      3.222546  
     289A      3.298254   290A      3.298430   291A      3.380621  
     292A      3.380732   293A      3.521113   294A      3.521271  
     295A      3.686816   296A      3.686953   297A      3.889711  
     298A      3.889753   299A      4.209810   300A      4.209828  
     301A      4.463554   302A      4.463625  

    Final Occupation by Irrep:
              A 
    DOCC [    36 ]

  @DF-RHF Final Energy:  -449.52477197995631

   => Energetics <=

    Nuclear Repulsion Energy =            369.3511957211958929
    One-Electron Energy =               -1339.2371907246460978
    Two-Electron Energy =                 520.3612230234939489
    Total Energy =                       -449.5247719799563129

Computation Completed


Properties will be evaluated at   0.000000,   0.000000,   0.000000 [a0]

Properties computed using the SCF density matrix

  Nuclear Dipole Moment: [e a0]
     X:   325.3410      Y: -1501.2795      Z:    36.4125

  Electronic Dipole Moment: [e a0]
     X:  -325.4526      Y:  1501.3477      Z:   -36.5358

  Dipole Moment: [e a0]
     X:    -0.1116      Y:     0.0682      Z:    -0.1234     Total:     0.1798

  Dipole Moment: [D]
     X:    -0.2836      Y:     0.1733      Z:    -0.3135     Total:     0.4569


*** tstop() called on ds1 at Mon Oct  4 14:13:12 2021
Module time:
	user time   =      22.02 seconds =       0.37 minutes
	system time =       0.55 seconds =       0.01 minutes
	total time  =          5 seconds =       0.08 minutes
Total time:
	user time   =      22.02 seconds =       0.37 minutes
	system time =       0.55 seconds =       0.01 minutes
	total time  =          5 seconds =       0.08 minutes

  //>>>>>>>>>>>>>>>>>>>>>>>>>>>>>>>>>>>//
  //            Monomer A HF           //
  //<<<<<<<<<<<<<<<<<<<<<<<<<<<<<<<<<<<//


*** tstart() called on ds1
*** at Mon Oct  4 14:13:12 2021

   => Loading Basis Set <=

    Name: AUG-CC-PVDZ
    Role: ORBITAL
    Keyword: BASIS
    atoms 1-2, 10-11 entry N          line   218 file /theoryfs2/ds/csargent/miniconda3/envs/cle/share/psi4/basis/aug-cc-pvdz.gbs 
    atoms 3-6, 12-15 entry H          line    40 file /theoryfs2/ds/csargent/miniconda3/envs/cle/share/psi4/basis/aug-cc-pvdz.gbs 
    atoms 7-9, 16-18 entry C          line   182 file /theoryfs2/ds/csargent/miniconda3/envs/cle/share/psi4/basis/aug-cc-pvdz.gbs 


         ---------------------------------------------------------
                                   SCF
               by Justin Turney, Rob Parrish, Andy Simmonett
                          and Daniel G. A. Smith
                              RHF Reference
                        6 Threads,   6675 MiB Core
         ---------------------------------------------------------

  ==> Geometry <==

    Molecular point group: c1
    Full point group: C1

    Geometry (in Bohr), charge = 0, multiplicity = 1:

       Center              X                  Y                   Z               Mass       
    ------------   -----------------  -----------------  -----------------  -----------------
         N            6.279812100000    -4.253033720000     0.193138650000    14.003074004430
         N            6.068707770000    -2.281256970000     1.805443170000    14.003074004430
         H            3.668711560000    -5.646289410000    -1.966840010000     1.007825032230
         H            0.690345210000    -2.375456940000    -0.428642360000     1.007825032230
         H            3.359174420000     0.176506010000     3.092650170000     1.007825032230
         H            7.352667820000    -1.994613110000     2.906807020000     1.007825032230
         C            3.779525860000    -1.215084530000     1.768581720000    12.000000000000
         C            2.382429980000    -2.555055380000     0.046076810000    12.000000000000
         C            4.017714680000    -4.384104900000    -0.887618630000    12.000000000000
      Gh(N)           2.798138360000   -37.975197490000     1.587858210000    14.003074004430
      Gh(N)           2.917000620000   -40.013104520000     0.050684500000    14.003074004430
      Gh(H)           5.471301090000   -35.574287520000     2.305888570000     1.007825032230
      Gh(H)           8.365937650000   -38.016826260000    -0.449248940000     1.007825032230
      Gh(H)           5.429513580000   -41.729875280000    -2.353885250000     1.007825032230
      Gh(H)           1.454592400000   -40.823081580000    -0.335080830000     1.007825032230
      Gh(C)           5.199837020000   -40.343280190000    -0.978364350000    12.000000000000
      Gh(C)           6.682829450000   -38.413607980000    -0.088441880000    12.000000000000
      Gh(C)           5.121524120000   -37.028440160000     1.503256060000    12.000000000000

  Running in c1 symmetry.

  Rotational constants: A =      0.03521  B =      0.00057  C =      0.00057 [cm^-1]
  Rotational constants: A =   1055.61785  B =     17.19799  C =     16.97450 [MHz]
  Nuclear repulsion =  166.624056450327203

  Charge       = 0
  Multiplicity = 1
  Electrons    = 36
  Nalpha       = 18
  Nbeta        = 18

  ==> Algorithm <==

  SCF Algorithm Type is DF.
  DIIS enabled.
  MOM disabled.
  Fractional occupation disabled.
  Guess Type is SAD.
  Energy threshold   = 1.00e-10
  Density threshold  = 1.00e-10
  Integral threshold = 1.00e-12

  ==> Primary Basis <==

  Basis Set: AUG-CC-PVDZ
    Blend: AUG-CC-PVDZ
    Number of shells: 130
    Number of basis functions: 302
    Number of Cartesian functions: 322
    Spherical Harmonics?: true
    Max angular momentum: 2

   => Loading Basis Set <=

    Name: (AUG-CC-PVDZ AUX)
    Role: JKFIT
    Keyword: DF_BASIS_SCF
    atoms 1-2, 10-11 entry N          line   212 file /theoryfs2/ds/csargent/miniconda3/envs/cle/share/psi4/basis/aug-cc-pvdz-jkfit.gbs 
    atoms 3-6, 12-15 entry H          line    70 file /theoryfs2/ds/csargent/miniconda3/envs/cle/share/psi4/basis/aug-cc-pvdz-jkfit.gbs 
    atoms 7-9, 16-18 entry C          line   154 file /theoryfs2/ds/csargent/miniconda3/envs/cle/share/psi4/basis/aug-cc-pvdz-jkfit.gbs 

  ==> Integral Setup <==

  ==> DiskDFJK: Density-Fitted J/K Matrices <==

    J tasked:                  Yes
    K tasked:                  Yes
    wK tasked:                  No
    OpenMP threads:              6
    Integrals threads:           6
    Memory [MiB]:             5006
    Algorithm:                Core
    Integral Cache:           LOAD
    Schwarz Cutoff:          1E-12
    Fitting Condition:       1E-10

   => Auxiliary Basis Set <=

  Basis Set: (AUG-CC-PVDZ AUX)
    Blend: AUG-CC-PVDZ-JKFIT
    Number of shells: 376
    Number of basis functions: 1116
    Number of Cartesian functions: 1290
    Spherical Harmonics?: true
    Max angular momentum: 3

  Minimum eigenvalue in the overlap matrix is 3.0324468391E-05.
  Reciprocal condition number of the overlap matrix is 2.4867198626E-06.
    Using symmetric orthogonalization.

  ==> Pre-Iterations <==

  SCF Guess: Superposition of Atomic Densities via on-the-fly atomic UHF (no occupation information).

   -------------------------
    Irrep   Nso     Nmo    
   -------------------------
     A        302     302 
   -------------------------
    Total     302     302
   -------------------------

  ==> Iterations <==

                           Total Energy        Delta E     RMS |[F,P]|

   @DF-RHF iter SAD:  -224.72194801309058   -2.24722e+02   0.00000e+00 
   @DF-RHF iter   1:  -224.63549170022256    8.64563e-02   1.50472e-03 DIIS
   @DF-RHF iter   2:  -224.73984613308846   -1.04354e-01   6.88462e-04 DIIS
   @DF-RHF iter   3:  -224.76075487197951   -2.09087e-02   1.48626e-04 DIIS
   @DF-RHF iter   4:  -224.76213931575327   -1.38444e-03   6.05310e-05 DIIS
   @DF-RHF iter   5:  -224.76231767051055   -1.78355e-04   1.19893e-05 DIIS
   @DF-RHF iter   6:  -224.76233462798345   -1.69575e-05   4.96772e-06 DIIS
   @DF-RHF iter   7:  -224.76233858402125   -3.95604e-06   2.18806e-06 DIIS
   @DF-RHF iter   8:  -224.76233934476340   -7.60742e-07   1.01700e-06 DIIS
   @DF-RHF iter   9:  -224.76233951240525   -1.67642e-07   2.83302e-07 DIIS
   @DF-RHF iter  10:  -224.76233952122612   -8.82088e-09   8.55547e-08 DIIS
   @DF-RHF iter  11:  -224.76233952191555   -6.89425e-10   1.99714e-08 DIIS
   @DF-RHF iter  12:  -224.76233952196088   -4.53326e-11   5.81092e-09 DIIS
   @DF-RHF iter  13:  -224.76233952196583   -4.94538e-12   2.83097e-09 DIIS
   @DF-RHF iter  14:  -224.76233952196671   -8.81073e-13   9.75191e-10 DIIS
   @DF-RHF iter  15:  -224.76233952196648    2.27374e-13   4.15548e-10 DIIS
   @DF-RHF iter  16:  -224.76233952196696   -4.83169e-13   1.25998e-10 DIIS
   @DF-RHF iter  17:  -224.76233952196694    2.84217e-14   4.47775e-11 DIIS
  Energy and wave function converged.


  ==> Post-Iterations <==

    Orbital Energies [Eh]
    ---------------------

    Doubly Occupied:                                                      

       1A    -15.636223     2A    -15.592313     3A    -11.279894  
       4A    -11.237784     5A    -11.209891     6A     -1.386922  
       7A     -1.121901     8A     -1.066898     9A     -0.872768  
      10A     -0.837061    11A     -0.757292    12A     -0.645746  
      13A     -0.620834    14A     -0.609140    15A     -0.583920  
      16A     -0.461404    17A     -0.370721    18A     -0.346048  

    Virtual:                                                              

      19A      0.023233    20A      0.030764    21A      0.040605  
      22A      0.042368    23A      0.044683    24A      0.049159  
      25A      0.063520    26A      0.066404    27A      0.084528  
      28A      0.091332    29A      0.099492    30A      0.100998  
      31A      0.104029    32A      0.117179    33A      0.118921  
      34A      0.126270    35A      0.126439    36A      0.128804  
      37A      0.133069    38A      0.133919    39A      0.134706  
      40A      0.138403    41A      0.141490    42A      0.156889  
      43A      0.159151    44A      0.164592    45A      0.166496  
      46A      0.171075    47A      0.178408    48A      0.179725  
      49A      0.196036    50A      0.196042    51A      0.202007  
      52A      0.204793    53A      0.206162    54A      0.223475  
      55A      0.225686    56A      0.228838    57A      0.236113  
      58A      0.240236    59A      0.243626    60A      0.244965  
      61A      0.264641    62A      0.271127    63A      0.271510  
      64A      0.279080    65A      0.301010    66A      0.322507  
      67A      0.325148    68A      0.340634    69A      0.352358  
      70A      0.355357    71A      0.367095    72A      0.373488  
      73A      0.374907    74A      0.384304    75A      0.396061  
      76A      0.402741    77A      0.414998    78A      0.428024  
      79A      0.432132    80A      0.432645    81A      0.441769  
      82A      0.442914    83A      0.443385    84A      0.453393  
      85A      0.456563    86A      0.458004    87A      0.459816  
      88A      0.462429    89A      0.478655    90A      0.498543  
      91A      0.508690    92A      0.510273    93A      0.519967  
      94A      0.521917    95A      0.533666    96A      0.538642  
      97A      0.541560    98A      0.559900    99A      0.569336  
     100A      0.572433   101A      0.574432   102A      0.586318  
     103A      0.590538   104A      0.595743   105A      0.602413  
     106A      0.613963   107A      0.620953   108A      0.621824  
     109A      0.634104   110A      0.646110   111A      0.655295  
     112A      0.676162   113A      0.691407   114A      0.698041  
     115A      0.700391   116A      0.708378   117A      0.720030  
     118A      0.721667   119A      0.725115   120A      0.736246  
     121A      0.745976   122A      0.747709   123A      0.758592  
     124A      0.773318   125A      0.781481   126A      0.790300  
     127A      0.798670   128A      0.815029   129A      0.821524  
     130A      0.828504   131A      0.838230   132A      0.848394  
     133A      0.852548   134A      0.855668   135A      0.871601  
     136A      0.881395   137A      0.881686   138A      0.888767  
     139A      0.896287   140A      0.906950   141A      0.916728  
     142A      0.924815   143A      0.942582   144A      0.952702  
     145A      0.978222   146A      0.984850   147A      0.997781  
     148A      1.011149   149A      1.024801   150A      1.030834  
     151A      1.046606   152A      1.052232   153A      1.066503  
     154A      1.071743   155A      1.081642   156A      1.100852  
     157A      1.108824   158A      1.128058   159A      1.134196  
     160A      1.150235   161A      1.159420   162A      1.166950  
     163A      1.175168   164A      1.185629   165A      1.220548  
     166A      1.222359   167A      1.237693   168A      1.268627  
     169A      1.269556   170A      1.294388   171A      1.303342  
     172A      1.311399   173A      1.315810   174A      1.341344  
     175A      1.365807   176A      1.382516   177A      1.401043  
     178A      1.435654   179A      1.445401   180A      1.474691  
     181A      1.493854   182A      1.507724   183A      1.512027  
     184A      1.526129   185A      1.560989   186A      1.590882  
     187A      1.608669   188A      1.637437   189A      1.669472  
     190A      1.677376   191A      1.689548   192A      1.703634  
     193A      1.723950   194A      1.749215   195A      1.764373  
     196A      1.805048   197A      1.875632   198A      1.932390  
     199A      1.943558   200A      1.988067   201A      2.021445  
     202A      2.041781   203A      2.057611   204A      2.088839  
     205A      2.109760   206A      2.135507   207A      2.144687  
     208A      2.168830   209A      2.190005   210A      2.200827  
     211A      2.217312   212A      2.230457   213A      2.234569  
     214A      2.262572   215A      2.275825   216A      2.278448  
     217A      2.289965   218A      2.307640   219A      2.336333  
     220A      2.360716   221A      2.381324   222A      2.389130  
     223A      2.393822   224A      2.395225   225A      2.435246  
     226A      2.444558   227A      2.464967   228A      2.479003  
     229A      2.500659   230A      2.514318   231A      2.531798  
     232A      2.549521   233A      2.570232   234A      2.584716  
     235A      2.632033   236A      2.642961   237A      2.668214  
     238A      2.703707   239A      2.719582   240A      2.733029  
     241A      2.826838   242A      2.828655   243A      2.834751  
     244A      2.870480   245A      2.890719   246A      2.901587  
     247A      2.918598   248A      2.945796   249A      2.999157  
     250A      3.028681   251A      3.055324   252A      3.090439  
     253A      3.092358   254A      3.122730   255A      3.140750  
     256A      3.182580   257A      3.188930   258A      3.222008  
     259A      3.254848   260A      3.289824   261A      3.297865  
     262A      3.356347   263A      3.380235   264A      3.396323  
     265A      3.424079   266A      3.448925   267A      3.487905  
     268A      3.498265   269A      3.520727   270A      3.634324  
     271A      3.667659   272A      3.686563   273A      3.736338  
     274A      3.770814   275A      3.851812   276A      3.889327  
     277A      3.965250   278A      4.036326   279A      4.095460  
     280A      4.209428   281A      4.244774   282A      4.448959  
     283A      4.463235   284A      4.659182   285A      4.708852  
     286A      4.750655   287A      4.811536   288A      4.995560  
     289A      5.077415   290A      5.241947   291A      5.532183  
     292A      5.669719   293A      5.827348   294A      6.107735  
     295A      6.318928   296A      6.708311   297A      6.968204  
     298A     18.111908   299A     18.648786   300A     19.374412  
     301A     25.246139   302A     25.706015  

    Final Occupation by Irrep:
              A 
    DOCC [    18 ]

  @DF-RHF Final Energy:  -224.76233952196694

   => Energetics <=

    Nuclear Repulsion Energy =            166.6240564503272026
    One-Electron Energy =                -633.4992733859633063
    Two-Electron Energy =                 242.1128774136691675
    Total Energy =                       -224.7623395219669362

Computation Completed


Properties will be evaluated at   0.000000,   0.000000,   0.000000 [a0]

Properties computed using the SCF density matrix

  Nuclear Dipole Moment: [e a0]
     X:   162.5886      Y:  -104.5054      Z:    23.1563

  Electronic Dipole Moment: [e a0]
     X:  -162.9913      Y:   105.1370      Z:   -22.5767

  Dipole Moment: [e a0]
     X:    -0.4027      Y:     0.6317      Z:     0.5796     Total:     0.9472

  Dipole Moment: [D]
     X:    -1.0235      Y:     1.6055      Z:     1.4733     Total:     2.4075


*** tstop() called on ds1 at Mon Oct  4 14:13:16 2021
Module time:
	user time   =      15.57 seconds =       0.26 minutes
	system time =       0.33 seconds =       0.01 minutes
	total time  =          4 seconds =       0.07 minutes
Total time:
	user time   =      38.01 seconds =       0.63 minutes
	system time =       0.89 seconds =       0.01 minutes
	total time  =          9 seconds =       0.15 minutes

  //>>>>>>>>>>>>>>>>>>>>>>>>>>>>>>>>>>>//
  //            Monomer B HF           //
  //<<<<<<<<<<<<<<<<<<<<<<<<<<<<<<<<<<<//


*** tstart() called on ds1
*** at Mon Oct  4 14:13:16 2021

   => Loading Basis Set <=

    Name: AUG-CC-PVDZ
    Role: ORBITAL
    Keyword: BASIS
    atoms 1-2, 10-11 entry N          line   218 file /theoryfs2/ds/csargent/miniconda3/envs/cle/share/psi4/basis/aug-cc-pvdz.gbs 
    atoms 3-6, 12-15 entry H          line    40 file /theoryfs2/ds/csargent/miniconda3/envs/cle/share/psi4/basis/aug-cc-pvdz.gbs 
    atoms 7-9, 16-18 entry C          line   182 file /theoryfs2/ds/csargent/miniconda3/envs/cle/share/psi4/basis/aug-cc-pvdz.gbs 


         ---------------------------------------------------------
                                   SCF
               by Justin Turney, Rob Parrish, Andy Simmonett
                          and Daniel G. A. Smith
                              RHF Reference
                        6 Threads,   6675 MiB Core
         ---------------------------------------------------------

  ==> Geometry <==

    Molecular point group: c1
    Full point group: C1

    Geometry (in Bohr), charge = 0, multiplicity = 1:

       Center              X                  Y                   Z               Mass       
    ------------   -----------------  -----------------  -----------------  -----------------
      Gh(N)           6.279812100000    -4.253033720000     0.193138650000    14.003074004430
      Gh(N)           6.068707770000    -2.281256970000     1.805443170000    14.003074004430
      Gh(H)           3.668711560000    -5.646289410000    -1.966840010000     1.007825032230
      Gh(H)           0.690345210000    -2.375456940000    -0.428642360000     1.007825032230
      Gh(H)           3.359174420000     0.176506010000     3.092650170000     1.007825032230
      Gh(H)           7.352667820000    -1.994613110000     2.906807020000     1.007825032230
      Gh(C)           3.779525860000    -1.215084530000     1.768581720000    12.000000000000
      Gh(C)           2.382429980000    -2.555055380000     0.046076810000    12.000000000000
      Gh(C)           4.017714680000    -4.384104900000    -0.887618630000    12.000000000000
         N            2.798138360000   -37.975197490000     1.587858210000    14.003074004430
         N            2.917000620000   -40.013104520000     0.050684500000    14.003074004430
         H            5.471301090000   -35.574287520000     2.305888570000     1.007825032230
         H            8.365937650000   -38.016826260000    -0.449248940000     1.007825032230
         H            5.429513580000   -41.729875280000    -2.353885250000     1.007825032230
         H            1.454592400000   -40.823081580000    -0.335080830000     1.007825032230
         C            5.199837020000   -40.343280190000    -0.978364350000    12.000000000000
         C            6.682829450000   -38.413607980000    -0.088441880000    12.000000000000
         C            5.121524120000   -37.028440160000     1.503256060000    12.000000000000

  Running in c1 symmetry.

  Rotational constants: A =      0.03521  B =      0.00057  C =      0.00057 [cm^-1]
  Rotational constants: A =   1055.61785  B =     17.19799  C =     16.97450 [MHz]
  Nuclear repulsion =  166.628603013397083

  Charge       = 0
  Multiplicity = 1
  Electrons    = 36
  Nalpha       = 18
  Nbeta        = 18

  ==> Algorithm <==

  SCF Algorithm Type is DF.
  DIIS enabled.
  MOM disabled.
  Fractional occupation disabled.
  Guess Type is SAD.
  Energy threshold   = 1.00e-10
  Density threshold  = 1.00e-10
  Integral threshold = 1.00e-12

  ==> Primary Basis <==

  Basis Set: AUG-CC-PVDZ
    Blend: AUG-CC-PVDZ
    Number of shells: 130
    Number of basis functions: 302
    Number of Cartesian functions: 322
    Spherical Harmonics?: true
    Max angular momentum: 2

   => Loading Basis Set <=

    Name: (AUG-CC-PVDZ AUX)
    Role: JKFIT
    Keyword: DF_BASIS_SCF
    atoms 1-2, 10-11 entry N          line   212 file /theoryfs2/ds/csargent/miniconda3/envs/cle/share/psi4/basis/aug-cc-pvdz-jkfit.gbs 
    atoms 3-6, 12-15 entry H          line    70 file /theoryfs2/ds/csargent/miniconda3/envs/cle/share/psi4/basis/aug-cc-pvdz-jkfit.gbs 
    atoms 7-9, 16-18 entry C          line   154 file /theoryfs2/ds/csargent/miniconda3/envs/cle/share/psi4/basis/aug-cc-pvdz-jkfit.gbs 

  ==> Integral Setup <==

  ==> DiskDFJK: Density-Fitted J/K Matrices <==

    J tasked:                  Yes
    K tasked:                  Yes
    wK tasked:                  No
    OpenMP threads:              6
    Integrals threads:           6
    Memory [MiB]:             5006
    Algorithm:                Core
    Integral Cache:           LOAD
    Schwarz Cutoff:          1E-12
    Fitting Condition:       1E-10

   => Auxiliary Basis Set <=

  Basis Set: (AUG-CC-PVDZ AUX)
    Blend: AUG-CC-PVDZ-JKFIT
    Number of shells: 376
    Number of basis functions: 1116
    Number of Cartesian functions: 1290
    Spherical Harmonics?: true
    Max angular momentum: 3

  Minimum eigenvalue in the overlap matrix is 3.0324468391E-05.
  Reciprocal condition number of the overlap matrix is 2.4867198626E-06.
    Using symmetric orthogonalization.

  ==> Pre-Iterations <==

  SCF Guess: Superposition of Atomic Densities via on-the-fly atomic UHF (no occupation information).

   -------------------------
    Irrep   Nso     Nmo    
   -------------------------
     A        302     302 
   -------------------------
    Total     302     302
   -------------------------

  ==> Iterations <==

                           Total Energy        Delta E     RMS |[F,P]|

   @DF-RHF iter SAD:  -224.72250857008268   -2.24723e+02   0.00000e+00 
   @DF-RHF iter   1:  -224.63556596223029    8.69426e-02   1.50490e-03 DIIS
   @DF-RHF iter   2:  -224.73993305079364   -1.04367e-01   6.88620e-04 DIIS
   @DF-RHF iter   3:  -224.76085080463378   -2.09178e-02   1.48614e-04 DIIS
   @DF-RHF iter   4:  -224.76223500327848   -1.38420e-03   6.05151e-05 DIIS
   @DF-RHF iter   5:  -224.76241324777541   -1.78244e-04   1.19848e-05 DIIS
   @DF-RHF iter   6:  -224.76243018092310   -1.69331e-05   4.96323e-06 DIIS
   @DF-RHF iter   7:  -224.76243412876582   -3.94784e-06   2.18627e-06 DIIS
   @DF-RHF iter   8:  -224.76243488830451   -7.59539e-07   1.01631e-06 DIIS
   @DF-RHF iter   9:  -224.76243505580919   -1.67505e-07   2.83280e-07 DIIS
   @DF-RHF iter  10:  -224.76243506462663   -8.81744e-09   8.55270e-08 DIIS
   @DF-RHF iter  11:  -224.76243506531623   -6.89596e-10   1.99678e-08 DIIS
   @DF-RHF iter  12:  -224.76243506536261   -4.63842e-11   5.80973e-09 DIIS
   @DF-RHF iter  13:  -224.76243506536662   -4.00746e-12   2.83582e-09 DIIS
   @DF-RHF iter  14:  -224.76243506536778   -1.16529e-12   9.79832e-10 DIIS
   @DF-RHF iter  15:  -224.76243506536781   -2.84217e-14   4.16538e-10 DIIS
   @DF-RHF iter  16:  -224.76243506536804   -2.27374e-13   1.25809e-10 DIIS
   @DF-RHF iter  17:  -224.76243506536764    3.97904e-13   4.47603e-11 DIIS
  Energy and wave function converged.


  ==> Post-Iterations <==

    Orbital Energies [Eh]
    ---------------------

    Doubly Occupied:                                                      

       1A    -15.636233     2A    -15.592291     3A    -11.279903  
       4A    -11.237759     5A    -11.209884     6A     -1.387001  
       7A     -1.121894     8A     -1.066928     9A     -0.872759  
      10A     -0.837039    11A     -0.757272    12A     -0.645745  
      13A     -0.620828    14A     -0.609177    15A     -0.583905  
      16A     -0.461413    17A     -0.370715    18A     -0.346055  

    Virtual:                                                              

      19A      0.023102    20A      0.030764    21A      0.040447  
      22A      0.042369    23A      0.044551    24A      0.049158  
      25A      0.063519    26A      0.066272    27A      0.084406  
      28A      0.091183    29A      0.099365    30A      0.101001  
      31A      0.104028    32A      0.117186    33A      0.118771  
      34A      0.126272    35A      0.126282    36A      0.128667  
      37A      0.133070    38A      0.133787    39A      0.134569  
      40A      0.138399    41A      0.141487    42A      0.156889  
      43A      0.158978    44A      0.164594    45A      0.166363  
      46A      0.171081    47A      0.178407    48A      0.179599  
      49A      0.195934    50A      0.196040    51A      0.201908  
      52A      0.204806    53A      0.206166    54A      0.223372  
      55A      0.225543    56A      0.228691    57A      0.235996  
      58A      0.240240    59A      0.243627    60A      0.244965  
      61A      0.264501    62A      0.271138    63A      0.271402  
      64A      0.279081    65A      0.301024    66A      0.322365  
      67A      0.325138    68A      0.340514    69A      0.352355  
      70A      0.355359    71A      0.366961    72A      0.373342  
      73A      0.374909    74A      0.384172    75A      0.396062  
      76A      0.402744    77A      0.415005    78A      0.427911  
      79A      0.432131    80A      0.432504    81A      0.441624  
      82A      0.442771    83A      0.443379    84A      0.453414  
      85A      0.456440    86A      0.457864    87A      0.459816  
      88A      0.462315    89A      0.478656    90A      0.498544  
      91A      0.508693    92A      0.510153    93A      0.519850  
      94A      0.521953    95A      0.533566    96A      0.538492  
      97A      0.541569    98A      0.559763    99A      0.569239  
     100A      0.572283   101A      0.574428   102A      0.586322  
     103A      0.590547   104A      0.595619   105A      0.602431  
     106A      0.613814   107A      0.620974   108A      0.621692  
     109A      0.633972   110A      0.646111   111A      0.655304  
     112A      0.676168   113A      0.691282   114A      0.698039  
     115A      0.700384   116A      0.708253   117A      0.719894  
     118A      0.721648   119A      0.725121   120A      0.736118  
     121A      0.745831   122A      0.747717   123A      0.758643  
     124A      0.773300   125A      0.781476   126A      0.790159  
     127A      0.798554   128A      0.814895   129A      0.821389  
     130A      0.828513   131A      0.838238   132A      0.848382  
     133A      0.852398   134A      0.855543   135A      0.871474  
     136A      0.881396   137A      0.881540   138A      0.888762  
     139A      0.896155   140A      0.906950   141A      0.916597  
     142A      0.924803   143A      0.942599   144A      0.952562  
     145A      0.978204   146A      0.984853   147A      0.997649  
     148A      1.011170   149A      1.024673   150A      1.030723  
     151A      1.046624   152A      1.052126   153A      1.066503  
     154A      1.071612   155A      1.081494   156A      1.100853  
     157A      1.108689   158A      1.128099   159A      1.134152  
     160A      1.150240   161A      1.159303   162A      1.166812  
     163A      1.175167   164A      1.185496   165A      1.220538  
     166A      1.222231   167A      1.237552   168A      1.268520  
     169A      1.269573   170A      1.294261   171A      1.303390  
     172A      1.311431   173A      1.315675   174A      1.341223  
     175A      1.365802   176A      1.382375   177A      1.401039  
     178A      1.435528   179A      1.445256   180A      1.474706  
     181A      1.493756   182A      1.507562   183A      1.512021  
     184A      1.526136   185A      1.560976   186A      1.590889  
     187A      1.608679   188A      1.637435   189A      1.669494  
     190A      1.677255   191A      1.689438   192A      1.703636  
     193A      1.723957   194A      1.749249   195A      1.764367  
     196A      1.805025   197A      1.875589   198A      1.932406  
     199A      1.943562   200A      1.988139   201A      2.021453  
     202A      2.041639   203A      2.057662   204A      2.088810  
     205A      2.109631   206A      2.135411   207A      2.144708  
     208A      2.168688   209A      2.189999   210A      2.200828  
     211A      2.217205   212A      2.230454   213A      2.234427  
     214A      2.262434   215A      2.275832   216A      2.278333  
     217A      2.289832   218A      2.307637   219A      2.336268  
     220A      2.360646   221A      2.381158   222A      2.389121  
     223A      2.393758   224A      2.395099   225A      2.435199  
     226A      2.444441   227A      2.464942   228A      2.478893  
     229A      2.500471   230A      2.514162   231A      2.531785  
     232A      2.549383   233A      2.570195   234A      2.584820  
     235A      2.631906   236A      2.642959   237A      2.668081  
     238A      2.703574   239A      2.719454   240A      2.733013  
     241A      2.826807   242A      2.828483   243A      2.834707  
     244A      2.870350   245A      2.890594   246A      2.901543  
     247A      2.918563   248A      2.945720   249A      2.999195  
     250A      3.028634   251A      3.055311   252A      3.090393  
     253A      3.092440   254A      3.122703   255A      3.140606  
     256A      3.182543   257A      3.189011   258A      3.222030  
     259A      3.254705   260A      3.289765   261A      3.297913  
     262A      3.356327   263A      3.380219   264A      3.396167  
     265A      3.424045   266A      3.448875   267A      3.487732  
     268A      3.498085   269A      3.520764   270A      3.634138  
     271A      3.667516   272A      3.686295   273A      3.736191  
     274A      3.770646   275A      3.851714   276A      3.889250  
     277A      3.964970   278A      4.036077   279A      4.095322  
     280A      4.209312   281A      4.244655   282A      4.449005  
     283A      4.463032   284A      4.658996   285A      4.708608  
     286A      4.750509   287A      4.811353   288A      4.995442  
     289A      5.077375   290A      5.242024   291A      5.531821  
     292A      5.669522   293A      5.827417   294A      6.107275  
     295A      6.318914   296A      6.708973   297A      6.968443  
     298A     18.111775   299A     18.648447   300A     19.374173  
     301A     25.246128   302A     25.705518  

    Final Occupation by Irrep:
              A 
    DOCC [    18 ]

  @DF-RHF Final Energy:  -224.76243506536764

   => Energetics <=

    Nuclear Repulsion Energy =            166.6286030133970826
    One-Electron Energy =                -633.5084738164380269
    Two-Electron Energy =                 242.1174357376733042
    Total Energy =                       -224.7624350653676402

Computation Completed


Properties will be evaluated at   0.000000,   0.000000,   0.000000 [a0]

Properties computed using the SCF density matrix

  Nuclear Dipole Moment: [e a0]
     X:   162.7525      Y: -1396.7742      Z:    13.2562

  Electronic Dipole Moment: [e a0]
     X:  -162.4615      Y:  1396.2101      Z:   -13.9593

  Dipole Moment: [e a0]
     X:     0.2909      Y:    -0.5640      Z:    -0.7031     Total:     0.9472

  Dipole Moment: [D]
     X:     0.7394      Y:    -1.4336      Z:    -1.7871     Total:     2.4074


*** tstop() called on ds1 at Mon Oct  4 14:13:19 2021
Module time:
	user time   =      15.87 seconds =       0.26 minutes
	system time =       0.33 seconds =       0.01 minutes
	total time  =          3 seconds =       0.05 minutes
Total time:
	user time   =      54.12 seconds =       0.90 minutes
	system time =       1.22 seconds =       0.02 minutes
	total time  =         12 seconds =       0.20 minutes
  Constructing Basis Sets for SAPT...

   => Loading Basis Set <=

    Name: (AUG-CC-PVDZ AUX)
    Role: RIFIT
    Keyword: DF_BASIS_SAPT
    atoms 1-2, 10-11 entry N          line   158 file /theoryfs2/ds/csargent/miniconda3/envs/cle/share/psi4/basis/aug-cc-pvdz-ri.gbs 
    atoms 3-6, 12-15 entry H          line    30 file /theoryfs2/ds/csargent/miniconda3/envs/cle/share/psi4/basis/aug-cc-pvdz-ri.gbs 
    atoms 7-9, 16-18 entry C          line   112 file /theoryfs2/ds/csargent/miniconda3/envs/cle/share/psi4/basis/aug-cc-pvdz-ri.gbs 


  //>>>>>>>>>>>>>>>>>>>>>>>>>>>>>>>>>>>//
  //               SAPT0               //
  //<<<<<<<<<<<<<<<<<<<<<<<<<<<<<<<<<<<//


*** tstart() called on ds1
*** at Mon Oct  4 14:13:19 2021

        SAPT0  
    Ed Hohenstein
     6 June 2009

      Orbital Information
  --------------------------
    NSO        =       302
    NMO        =       302
    NRI        =       904
    NOCC A     =        18
    NOCC B     =        18
    FOCC A     =         5
    FOCC B     =         5
    NVIR A     =       284
    NVIR B     =       284

    Elst10,r            =     0.000002568541 [Eh]
    Exch10              =     0.000000000000 [Eh]
    Exch10 (S^2)        =     0.000000000000 [Eh]

    Iter     Energy [mEh]          dE [mEh]         Residual      Time [s]
       1      -0.00001200       0.000012004       0.033241854             0
       2      -0.00001087      -0.000001137       0.007677402             0
       3      -0.00001155       0.000000679       0.003910006             1
       4      -0.00001183       0.000000288       0.000629942             1
       5      -0.00001181      -0.000000027       0.000276338             1
       6      -0.00001180      -0.000000006       0.000089751             1
       7      -0.00001180       0.000000001       0.000043694             1
       8      -0.00001180       0.000000001       0.000019116             1
       9      -0.00001180      -0.000000000       0.000005512             1
      10      -0.00001180      -0.000000000       0.000001623             1
      11      -0.00001180       0.000000000       0.000000678             2

    CHF Iterations converged


    Iter     Energy [mEh]          dE [mEh]         Residual      Time [s]
       1      -0.00002346       0.000023461       0.053184681             0
       2      -0.00002124      -0.000002217       0.012235687             0
       3      -0.00002297       0.000001727       0.005116030             0
       4      -0.00002336       0.000000387       0.001240674             0
       5      -0.00002333      -0.000000031       0.000628080             0
       6      -0.00002330      -0.000000030       0.000203999             0
       7      -0.00002330       0.000000000       0.000082644             0
       8      -0.00002330       0.000000003       0.000036453             1
       9      -0.00002330       0.000000000       0.000009933             1
      10      -0.00002330      -0.000000001       0.000002297             1
      11      -0.00002330       0.000000000       0.000000882             1

    CHF Iterations converged

    Ind20,r (A<-B)      =    -0.000000011804 [Eh]
    Ind20,r (B<-A)      =    -0.000000023300 [Eh]
    Ind20,r             =    -0.000000035103 [Eh]
    Exch-Ind20,r (A<-B) =     0.000000000000 [Eh]
    Exch-Ind20,r (B<-A) =     0.000000000000 [Eh]
    Exch-Ind20,r        =     0.000000000000 [Eh]
    Disp20              =    -0.000000541694 [Eh]
    Disp20 (SS)         =    -0.000000270847 [Eh]
    Disp20 (OS)         =    -0.000000270847 [Eh]
    Exch-Disp20         =     0.000000000000 [Eh]
    Exch-Disp20 (SS)    =     0.000000000000 [Eh]
    Exch-Disp20 (OS)    =     0.000000000000 [Eh]

    SAPT Results 
  --------------------------------------------------------------------------------------------------------
    Electrostatics                  0.00256854 [mEh]       0.00161178 [kcal/mol]       0.00674370 [kJ/mol]
      Elst10,r                      0.00256854 [mEh]       0.00161178 [kcal/mol]       0.00674370 [kJ/mol]

    Exchange                        0.00000000 [mEh]       0.00000000 [kcal/mol]       0.00000000 [kJ/mol]
      Exch10                        0.00000000 [mEh]       0.00000000 [kcal/mol]       0.00000000 [kJ/mol]
      Exch10(S^2)                   0.00000000 [mEh]       0.00000000 [kcal/mol]       0.00000000 [kJ/mol]

    Induction                       0.00003884 [mEh]       0.00002437 [kcal/mol]       0.00010197 [kJ/mol]
      Ind20,r                      -0.00003510 [mEh]      -0.00002203 [kcal/mol]      -0.00009216 [kJ/mol]
      Exch-Ind20,r                  0.00000000 [mEh]       0.00000000 [kcal/mol]       0.00000000 [kJ/mol]
      delta HF,r (2)                0.00007394 [mEh]       0.00004640 [kcal/mol]       0.00019413 [kJ/mol]

    Dispersion                     -0.00054169 [mEh]      -0.00033992 [kcal/mol]      -0.00142222 [kJ/mol]
      Disp20                       -0.00054169 [mEh]      -0.00033992 [kcal/mol]      -0.00142222 [kJ/mol]
      Exch-Disp20                   0.00000000 [mEh]       0.00000000 [kcal/mol]       0.00000000 [kJ/mol]
      Disp20 (SS)                  -0.00027085 [mEh]      -0.00016996 [kcal/mol]      -0.00071111 [kJ/mol]
      Disp20 (OS)                  -0.00027085 [mEh]      -0.00016996 [kcal/mol]      -0.00071111 [kJ/mol]
      Exch-Disp20 (SS)              0.00000000 [mEh]       0.00000000 [kcal/mol]       0.00000000 [kJ/mol]
      Exch-Disp20 (OS)              0.00000000 [mEh]       0.00000000 [kcal/mol]       0.00000000 [kJ/mol]

  Total HF                          0.00260738 [mEh]       0.00163615 [kcal/mol]       0.00684567 [kJ/mol]
  Total SAPT0                       0.00206568 [mEh]       0.00129624 [kcal/mol]       0.00542345 [kJ/mol]

  Special recipe for scaled SAPT0 (see Manual):
    Electrostatics sSAPT0           0.00256854 [mEh]       0.00161178 [kcal/mol]       0.00674370 [kJ/mol]
    Exchange sSAPT0                 0.00000000 [mEh]       0.00000000 [kcal/mol]       0.00000000 [kJ/mol]
    Induction sSAPT0                0.00003884 [mEh]       0.00002437 [kcal/mol]       0.00010197 [kJ/mol]
    Dispersion sSAPT0              -0.00054169 [mEh]      -0.00033992 [kcal/mol]      -0.00142222 [kJ/mol]
  Total sSAPT0                      0.00206568 [mEh]       0.00129624 [kcal/mol]       0.00542345 [kJ/mol]
  --------------------------------------------------------------------------------------------------------

*** tstop() called on ds1 at Mon Oct  4 14:13:28 2021
Module time:
	user time   =      43.84 seconds =       0.73 minutes
	system time =       3.83 seconds =       0.06 minutes
	total time  =          9 seconds =       0.15 minutes
Total time:
	user time   =      98.86 seconds =       1.65 minutes
	system time =       5.08 seconds =       0.08 minutes
	total time  =         21 seconds =       0.35 minutes


Warning! sapt0 does not have an associated derived wavefunction.The returned wavefunction is the dimer SCF wavefunction.


    Psi4 stopped on: Monday, 04 October 2021 02:13PM
    Psi4 wall time for execution: 0:00:21.24

*** Psi4 exiting successfully. Buy a developer a beer!
