
    -----------------------------------------------------------------------
          Psi4: An Open-Source Ab Initio Electronic Structure Package
                               Psi4 1.4rc3 

                         Git: Rev {HEAD} 080dba6 


    D. G. A. Smith, L. A. Burns, A. C. Simmonett, R. M. Parrish,
    M. C. Schieber, R. Galvelis, P. Kraus, H. Kruse, R. Di Remigio,
    A. Alenaizan, A. M. James, S. Lehtola, J. P. Misiewicz, M. Scheurer,
    R. A. Shaw, J. B. Schriber, Y. Xie, Z. L. Glick, D. A. Sirianni,
    J. S. O'Brien, J. M. Waldrop, A. Kumar, E. G. Hohenstein,
    B. P. Pritchard, B. R. Brooks, H. F. Schaefer III, A. Yu. Sokolov,
    K. Patkowski, A. E. DePrince III, U. Bozkaya, R. A. King,
    F. A. Evangelista, J. M. Turney, T. D. Crawford, C. D. Sherrill,
    J. Chem. Phys. 152(18) 184108 (2020). https://doi.org/10.1063/5.0006002

                            Additional Code Authors
    E. T. Seidl, C. L. Janssen, E. F. Valeev, M. L. Leininger,
    J. F. Gonthier, R. M. Richard, H. R. McAlexander, M. Saitow, X. Wang,
    P. Verma, and M. H. Lechner

             Previous Authors, Complete List of Code Contributors,
                       and Citations for Specific Modules
    https://github.com/psi4/psi4/blob/master/codemeta.json
    https://github.com/psi4/psi4/graphs/contributors
    http://psicode.org/psi4manual/master/introduction.html#citing-psifour

    -----------------------------------------------------------------------


    Psi4 started on: Monday, 04 October 2021 02:26PM

    Process ID: 10422
    Host:       ds1
    PSIDATADIR: /theoryfs2/ds/csargent/miniconda3/envs/cle/share/psi4
    Memory:     500.0 MiB
    Threads:    6
    
  ==> Input File <==

--------------------------------------------------------------------------
# PSI4 file produced by CrystaLattE

# Generated from:               pyrazole.xyz
# Psithon input for N-mer:      2mer-0+138
# Number of atoms per monomer:  [9, 9]
# Number of replicas:           2
# COM priority:                 3.433665914109e-05
# Minimum COM separations:      16.281 
# Separation priority:          6.009127267390e-05
# Minimum monomer separations:  13.510 
# Cutoff priority:              2.353686064705e-06
# Nuclear repulsion energy:     375.40412449493306

memory 7 GB

molecule Dimer_0_138 {
  N            6.27981210      -4.25303372       0.19313865 
  N            6.06870777      -2.28125697       1.80544317 
  H            3.66871156      -5.64628941      -1.96684001 
  H            0.69034521      -2.37545694      -0.42864236 
  H            3.35917442       0.17650601       3.09265017 
  H            7.35266782      -1.99461311       2.90680702 
  C            3.77952586      -1.21508453       1.76858172 
  C            2.38242998      -2.55505538       0.04607681 
  C            4.01771468      -4.38410490      -0.88761863 
--
  N           -1.45861638      28.14842737      -0.14706183 
  N           -1.66972071      26.17665062      -1.75936635 
  H           -4.06971692      29.54168306       2.01291682 
  H           -7.04808328      26.27085060       0.47471918 
  H           -4.37925406      23.71888764      -3.04657335 
  H           -0.38576066      25.89000676      -2.86073020 
  C           -3.95890263      25.11047818      -1.72250490 
  C           -5.35599851      26.45044903       0.00000000 
  C           -3.72071380      28.27949855       0.93369544 
units = au
no_com
no_reorient
}

set {
  e_convergence 10
  d_convergence 10
  scf_type df
  mp2_type df
  cc_type df
  freeze_core true
}

energy('sapt0/aug-cc-pvdz')

--------------------------------------------------------------------------

  Memory set to   6.519 GiB by Python driver.

Scratch directory: /scratch/csargent/psi4.7158.66302/

Scratch directory: /scratch/csargent/psi4.7158.66302/

  //>>>>>>>>>>>>>>>>>>>>>>>>>>>>>>>>>>>//
  //              Dimer HF             //
  //<<<<<<<<<<<<<<<<<<<<<<<<<<<<<<<<<<<//


*** tstart() called on ds1
*** at Mon Oct  4 14:26:32 2021

   => Loading Basis Set <=

    Name: AUG-CC-PVDZ
    Role: ORBITAL
    Keyword: BASIS
    atoms 1-2, 10-11 entry N          line   218 file /theoryfs2/ds/csargent/miniconda3/envs/cle/share/psi4/basis/aug-cc-pvdz.gbs 
    atoms 3-6, 12-15 entry H          line    40 file /theoryfs2/ds/csargent/miniconda3/envs/cle/share/psi4/basis/aug-cc-pvdz.gbs 
    atoms 7-9, 16-18 entry C          line   182 file /theoryfs2/ds/csargent/miniconda3/envs/cle/share/psi4/basis/aug-cc-pvdz.gbs 


         ---------------------------------------------------------
                                   SCF
               by Justin Turney, Rob Parrish, Andy Simmonett
                          and Daniel G. A. Smith
                              RHF Reference
                        6 Threads,   6675 MiB Core
         ---------------------------------------------------------

  ==> Geometry <==

    Molecular point group: c1
    Full point group: C1

    Geometry (in Bohr), charge = 0, multiplicity = 1:

       Center              X                  Y                   Z               Mass       
    ------------   -----------------  -----------------  -----------------  -----------------
         N            6.279812100000    -4.253033720000     0.193138650000    14.003074004430
         N            6.068707770000    -2.281256970000     1.805443170000    14.003074004430
         H            3.668711560000    -5.646289410000    -1.966840010000     1.007825032230
         H            0.690345210000    -2.375456940000    -0.428642360000     1.007825032230
         H            3.359174420000     0.176506010000     3.092650170000     1.007825032230
         H            7.352667820000    -1.994613110000     2.906807020000     1.007825032230
         C            3.779525860000    -1.215084530000     1.768581720000    12.000000000000
         C            2.382429980000    -2.555055380000     0.046076810000    12.000000000000
         C            4.017714680000    -4.384104900000    -0.887618630000    12.000000000000
         N           -1.458616380000    28.148427370000    -0.147061830000    14.003074004430
         N           -1.669720710000    26.176650620000    -1.759366350000    14.003074004430
         H           -4.069716920000    29.541683060000     2.012916820000     1.007825032230
         H           -7.048083280000    26.270850600000     0.474719180000     1.007825032230
         H           -4.379254060000    23.718887640000    -3.046573350000     1.007825032230
         H           -0.385760660000    25.890006760000    -2.860730200000     1.007825032230
         C           -3.958902630000    25.110478180000    -1.722504900000    12.000000000000
         C           -5.355998510000    26.450449030000     0.000000000000    12.000000000000
         C           -3.720713800000    28.279498550000     0.933695440000    12.000000000000

  Running in c1 symmetry.

  Rotational constants: A =      0.03527  B =      0.00118  C =      0.00115 [cm^-1]
  Rotational constants: A =   1057.40234  B =     35.45841  C =     34.54597 [MHz]
  Nuclear repulsion =  375.404124456499687

  Charge       = 0
  Multiplicity = 1
  Electrons    = 72
  Nalpha       = 36
  Nbeta        = 36

  ==> Algorithm <==

  SCF Algorithm Type is DF.
  DIIS enabled.
  MOM disabled.
  Fractional occupation disabled.
  Guess Type is SAD.
  Energy threshold   = 1.00e-10
  Density threshold  = 1.00e-10
  Integral threshold = 1.00e-12

  ==> Primary Basis <==

  Basis Set: AUG-CC-PVDZ
    Blend: AUG-CC-PVDZ
    Number of shells: 130
    Number of basis functions: 302
    Number of Cartesian functions: 322
    Spherical Harmonics?: true
    Max angular momentum: 2

   => Loading Basis Set <=

    Name: (AUG-CC-PVDZ AUX)
    Role: JKFIT
    Keyword: DF_BASIS_SCF
    atoms 1-2, 10-11 entry N          line   212 file /theoryfs2/ds/csargent/miniconda3/envs/cle/share/psi4/basis/aug-cc-pvdz-jkfit.gbs 
    atoms 3-6, 12-15 entry H          line    70 file /theoryfs2/ds/csargent/miniconda3/envs/cle/share/psi4/basis/aug-cc-pvdz-jkfit.gbs 
    atoms 7-9, 16-18 entry C          line   154 file /theoryfs2/ds/csargent/miniconda3/envs/cle/share/psi4/basis/aug-cc-pvdz-jkfit.gbs 

  ==> Integral Setup <==

  ==> DiskDFJK: Density-Fitted J/K Matrices <==

    J tasked:                  Yes
    K tasked:                  Yes
    wK tasked:                  No
    OpenMP threads:              6
    Integrals threads:           6
    Memory [MiB]:             5006
    Algorithm:                Core
    Integral Cache:           SAVE
    Schwarz Cutoff:          1E-12
    Fitting Condition:       1E-10

   => Auxiliary Basis Set <=

  Basis Set: (AUG-CC-PVDZ AUX)
    Blend: AUG-CC-PVDZ-JKFIT
    Number of shells: 376
    Number of basis functions: 1116
    Number of Cartesian functions: 1290
    Spherical Harmonics?: true
    Max angular momentum: 3

  Minimum eigenvalue in the overlap matrix is 3.0333045754E-05.
  Reciprocal condition number of the overlap matrix is 2.4874251852E-06.
    Using symmetric orthogonalization.

  ==> Pre-Iterations <==

  SCF Guess: Superposition of Atomic Densities via on-the-fly atomic UHF (no occupation information).

   -------------------------
    Irrep   Nso     Nmo    
   -------------------------
     A        302     302 
   -------------------------
    Total     302     302
   -------------------------

  ==> Iterations <==

                           Total Energy        Delta E     RMS |[F,P]|

   @DF-RHF iter SAD:  -449.44389602425809   -4.49444e+02   0.00000e+00 
   @DF-RHF iter   1:  -449.27100669041033    1.72889e-01   2.12792e-03 DIIS
   @DF-RHF iter   2:  -449.47970544879371   -2.08699e-01   9.73570e-04 DIIS
   @DF-RHF iter   3:  -449.52151697734337   -4.18115e-02   2.10216e-04 DIIS
   @DF-RHF iter   4:  -449.52428586585705   -2.76889e-03   8.56311e-05 DIIS
   @DF-RHF iter   5:  -449.52464277838556   -3.56913e-04   1.69545e-05 DIIS
   @DF-RHF iter   6:  -449.52467668403239   -3.39056e-05   7.02442e-06 DIIS
   @DF-RHF iter   7:  -449.52468459270875   -7.90868e-06   3.09567e-06 DIIS
   @DF-RHF iter   8:  -449.52468611464906   -1.52194e-06   1.43888e-06 DIIS
   @DF-RHF iter   9:  -449.52468645021719   -3.35568e-07   4.01169e-07 DIIS
   @DF-RHF iter  10:  -449.52468646790436   -1.76872e-08   1.21022e-07 DIIS
   @DF-RHF iter  11:  -449.52468646928656   -1.38220e-09   2.82670e-08 DIIS
   @DF-RHF iter  12:  -449.52468646937888   -9.23137e-11   8.23681e-09 DIIS
   @DF-RHF iter  13:  -449.52468646938769   -8.81073e-12   4.01901e-09 DIIS
   @DF-RHF iter  14:  -449.52468646938911   -1.42109e-12   1.38606e-09 DIIS
   @DF-RHF iter  15:  -449.52468646938985   -7.38964e-13   5.89520e-10 DIIS
   @DF-RHF iter  16:  -449.52468646938934    5.11591e-13   1.78475e-10 DIIS
   @DF-RHF iter  17:  -449.52468646938945   -1.13687e-13   6.35309e-11 DIIS
  Energy and wave function converged.


  ==> Post-Iterations <==

    Orbital Energies [Eh]
    ---------------------

    Doubly Occupied:                                                      

       1A    -15.636854     2A    -15.636701     3A    -15.592944  
       4A    -15.592798     5A    -11.280531     6A    -11.280389  
       7A    -11.238410     8A    -11.238273     9A    -11.210533  
      10A    -11.210406    11A     -1.387553    12A     -1.387402  
      13A     -1.122530    14A     -1.122381    15A     -1.067536  
      16A     -1.067398    17A     -0.873395    18A     -0.873254  
      19A     -0.837692    20A     -0.837558    21A     -0.757931  
      22A     -0.757789    23A     -0.646376    24A     -0.646237  
      25A     -0.621467    26A     -0.621336    27A     -0.609774  
      28A     -0.609622    29A     -0.584556    30A     -0.584417  
      31A     -0.462028    32A     -0.461881    33A     -0.371352  
      34A     -0.371209    35A     -0.346687    36A     -0.346547  

    Virtual:                                                              

      37A      0.030063    38A      0.030419    39A      0.041763  
      40A      0.041796    41A      0.048536    42A      0.048760  
      43A      0.062943    44A      0.063065    45A      0.100309  
      46A      0.100511    47A      0.103410    48A      0.103545  
      49A      0.116547    50A      0.116657    51A      0.125585  
      52A      0.125755    53A      0.132358    54A      0.132728  
      55A      0.137708    56A      0.137784    57A      0.140703  
      58A      0.141149    59A      0.156149    60A      0.156402  
      61A      0.163947    62A      0.164074    63A      0.170436  
      64A      0.170601    65A      0.177808    66A      0.177928  
      67A      0.195415    68A      0.195661    69A      0.204171  
      70A      0.204350    71A      0.205554    72A      0.205724  
      73A      0.239587    74A      0.239734    75A      0.242974  
      76A      0.243139    77A      0.244358    78A      0.244493  
      79A      0.270510    80A      0.270659    81A      0.278429  
      82A      0.278635    83A      0.300418    84A      0.300551  
      85A      0.324460    86A      0.324671    87A      0.351713  
      88A      0.351885    89A      0.354686    90A      0.354890  
      91A      0.374271    92A      0.374413    93A      0.395245  
      94A      0.395758    95A      0.402108    96A      0.402256  
      97A      0.414339    98A      0.414452    99A      0.431521  
     100A      0.431668   101A      0.442787   102A      0.442927  
     103A      0.452765   104A      0.452911   105A      0.459197  
     106A      0.459333   107A      0.478031   108A      0.478182  
     109A      0.497931   110A      0.498067   111A      0.508073  
     112A      0.508206   113A      0.521278   114A      0.521421  
     115A      0.540859   116A      0.541118   117A      0.573813  
     118A      0.573962   119A      0.585686   120A      0.585822  
     121A      0.589905   122A      0.590037   123A      0.601758  
     124A      0.601902   125A      0.620310   126A      0.620441  
     127A      0.645474   128A      0.645609   129A      0.654645  
     130A      0.654787   131A      0.675524   132A      0.675665  
     133A      0.697410   134A      0.697542   135A      0.699765  
     136A      0.699898   137A      0.721034   138A      0.721187  
     139A      0.724484   140A      0.724613   141A      0.747081  
     142A      0.747221   143A      0.757960   144A      0.758090  
     145A      0.772680   146A      0.772814   147A      0.780842  
     148A      0.780999   149A      0.827885   150A      0.828028  
     151A      0.837607   152A      0.837746   153A      0.847702  
     154A      0.847960   155A      0.880745   156A      0.880877  
     157A      0.888127   158A      0.888267   159A      0.906318  
     160A      0.906454   161A      0.924190   162A      0.924336  
     163A      0.941942   164A      0.942086   165A      0.977592  
     166A      0.977718   167A      0.984213   168A      0.984350  
     169A      1.010526   170A      1.010677   171A      1.045987  
     172A      1.046146   173A      1.065859   174A      1.065999  
     175A      1.100222   176A      1.100381   177A      1.127424  
     178A      1.127565   179A      1.133554   180A      1.133730  
     181A      1.149600   182A      1.149732   183A      1.174540  
     184A      1.174671   185A      1.219926   186A      1.220072  
     187A      1.268922   188A      1.269057   189A      1.302714  
     190A      1.302863   191A      1.310776   192A      1.310925  
     193A      1.365182   194A      1.365324   195A      1.400407  
     196A      1.400537   197A      1.474059   198A      1.474217  
     199A      1.511394   200A      1.511545   201A      1.525491  
     202A      1.525630   203A      1.560352   204A      1.560489  
     205A      1.590242   206A      1.590376   207A      1.608030  
     208A      1.608166   209A      1.636800   210A      1.636923  
     211A      1.668823   212A      1.668967   213A      1.702985  
     214A      1.703167   215A      1.723313   216A      1.723459  
     217A      1.748558   218A      1.748746   219A      1.763732  
     220A      1.763878   221A      1.804416   222A      1.804558  
     223A      1.874998   224A      1.875136   225A      1.931748  
     226A      1.931913   227A      1.942919   228A      1.943042  
     229A      1.987436   230A      1.987565   231A      2.020813  
     232A      2.020959   233A      2.056979   234A      2.057115  
     235A      2.088204   236A      2.088349   237A      2.144055  
     238A      2.144198   239A      2.189365   240A      2.189503  
     241A      2.200193   242A      2.200325   243A      2.229828  
     244A      2.229972   245A      2.275195   246A      2.275321  
     247A      2.307009   248A      2.307153   249A      2.360085  
     250A      2.360221   251A      2.388496   252A      2.388649  
     253A      2.393198   254A      2.393363   255A      2.434615  
     256A      2.434771   257A      2.464343   258A      2.464502  
     259A      2.531162   260A      2.531305   261A      2.569602  
     262A      2.569743   263A      2.584088   264A      2.584247  
     265A      2.642330   266A      2.642477   267A      2.732394  
     268A      2.732544   269A      2.826209   270A      2.826350  
     271A      2.834121   272A      2.834263   273A      2.900958  
     274A      2.901110   275A      2.917966   276A      2.918122  
     277A      2.998524   278A      2.998663   279A      3.054692  
     280A      3.054841   281A      3.091720   282A      3.091891  
     283A      3.122073   284A      3.122266   285A      3.188300  
     286A      3.188438   287A      3.221376   288A      3.221511  
     289A      3.297241   290A      3.297384   291A      3.379598  
     292A      3.379732   293A      3.520098   294A      3.520247  
     295A      3.685933   296A      3.686067   297A      3.888692  
     298A      3.888863   299A      4.208787   300A      4.208964  
     301A      4.462600   302A      4.462730  

    Final Occupation by Irrep:
              A 
    DOCC [    36 ]

  @DF-RHF Final Energy:  -449.52468646938945

   => Energetics <=

    Nuclear Repulsion Energy =            375.4041244564996873
    One-Electron Energy =               -1351.2701323865189806
    Two-Electron Energy =                 526.3413214606299562
    Total Energy =                       -449.5246864693893940

Computation Completed


Properties will be evaluated at   0.000000,   0.000000,   0.000000 [a0]

Properties computed using the SCF density matrix

  Nuclear Dipole Moment: [e a0]
     X:    46.5937      Y:   860.2342      Z:     1.6588

  Electronic Dipole Moment: [e a0]
     X:   -47.3979      Y:  -860.2337      Z:    -1.6584

  Dipole Moment: [e a0]
     X:    -0.8042      Y:     0.0005      Z:     0.0004     Total:     0.8042

  Dipole Moment: [D]
     X:    -2.0442      Y:     0.0012      Z:     0.0009     Total:     2.0442


*** tstop() called on ds1 at Mon Oct  4 14:26:37 2021
Module time:
	user time   =      23.52 seconds =       0.39 minutes
	system time =       0.60 seconds =       0.01 minutes
	total time  =          5 seconds =       0.08 minutes
Total time:
	user time   =      23.52 seconds =       0.39 minutes
	system time =       0.60 seconds =       0.01 minutes
	total time  =          5 seconds =       0.08 minutes

  //>>>>>>>>>>>>>>>>>>>>>>>>>>>>>>>>>>>//
  //            Monomer A HF           //
  //<<<<<<<<<<<<<<<<<<<<<<<<<<<<<<<<<<<//


*** tstart() called on ds1
*** at Mon Oct  4 14:26:37 2021

   => Loading Basis Set <=

    Name: AUG-CC-PVDZ
    Role: ORBITAL
    Keyword: BASIS
    atoms 1-2, 10-11 entry N          line   218 file /theoryfs2/ds/csargent/miniconda3/envs/cle/share/psi4/basis/aug-cc-pvdz.gbs 
    atoms 3-6, 12-15 entry H          line    40 file /theoryfs2/ds/csargent/miniconda3/envs/cle/share/psi4/basis/aug-cc-pvdz.gbs 
    atoms 7-9, 16-18 entry C          line   182 file /theoryfs2/ds/csargent/miniconda3/envs/cle/share/psi4/basis/aug-cc-pvdz.gbs 


         ---------------------------------------------------------
                                   SCF
               by Justin Turney, Rob Parrish, Andy Simmonett
                          and Daniel G. A. Smith
                              RHF Reference
                        6 Threads,   6675 MiB Core
         ---------------------------------------------------------

  ==> Geometry <==

    Molecular point group: c1
    Full point group: C1

    Geometry (in Bohr), charge = 0, multiplicity = 1:

       Center              X                  Y                   Z               Mass       
    ------------   -----------------  -----------------  -----------------  -----------------
         N            6.279812100000    -4.253033720000     0.193138650000    14.003074004430
         N            6.068707770000    -2.281256970000     1.805443170000    14.003074004430
         H            3.668711560000    -5.646289410000    -1.966840010000     1.007825032230
         H            0.690345210000    -2.375456940000    -0.428642360000     1.007825032230
         H            3.359174420000     0.176506010000     3.092650170000     1.007825032230
         H            7.352667820000    -1.994613110000     2.906807020000     1.007825032230
         C            3.779525860000    -1.215084530000     1.768581720000    12.000000000000
         C            2.382429980000    -2.555055380000     0.046076810000    12.000000000000
         C            4.017714680000    -4.384104900000    -0.887618630000    12.000000000000
      Gh(N)          -1.458616380000    28.148427370000    -0.147061830000    14.003074004430
      Gh(N)          -1.669720710000    26.176650620000    -1.759366350000    14.003074004430
      Gh(H)          -4.069716920000    29.541683060000     2.012916820000     1.007825032230
      Gh(H)          -7.048083280000    26.270850600000     0.474719180000     1.007825032230
      Gh(H)          -4.379254060000    23.718887640000    -3.046573350000     1.007825032230
      Gh(H)          -0.385760660000    25.890006760000    -2.860730200000     1.007825032230
      Gh(C)          -3.958902630000    25.110478180000    -1.722504900000    12.000000000000
      Gh(C)          -5.355998510000    26.450449030000     0.000000000000    12.000000000000
      Gh(C)          -3.720713800000    28.279498550000     0.933695440000    12.000000000000

  Running in c1 symmetry.

  Rotational constants: A =      0.03527  B =      0.00118  C =      0.00115 [cm^-1]
  Rotational constants: A =   1057.40234  B =     35.45841  C =     34.54597 [MHz]
  Nuclear repulsion =  166.624056450327203

  Charge       = 0
  Multiplicity = 1
  Electrons    = 36
  Nalpha       = 18
  Nbeta        = 18

  ==> Algorithm <==

  SCF Algorithm Type is DF.
  DIIS enabled.
  MOM disabled.
  Fractional occupation disabled.
  Guess Type is SAD.
  Energy threshold   = 1.00e-10
  Density threshold  = 1.00e-10
  Integral threshold = 1.00e-12

  ==> Primary Basis <==

  Basis Set: AUG-CC-PVDZ
    Blend: AUG-CC-PVDZ
    Number of shells: 130
    Number of basis functions: 302
    Number of Cartesian functions: 322
    Spherical Harmonics?: true
    Max angular momentum: 2

   => Loading Basis Set <=

    Name: (AUG-CC-PVDZ AUX)
    Role: JKFIT
    Keyword: DF_BASIS_SCF
    atoms 1-2, 10-11 entry N          line   212 file /theoryfs2/ds/csargent/miniconda3/envs/cle/share/psi4/basis/aug-cc-pvdz-jkfit.gbs 
    atoms 3-6, 12-15 entry H          line    70 file /theoryfs2/ds/csargent/miniconda3/envs/cle/share/psi4/basis/aug-cc-pvdz-jkfit.gbs 
    atoms 7-9, 16-18 entry C          line   154 file /theoryfs2/ds/csargent/miniconda3/envs/cle/share/psi4/basis/aug-cc-pvdz-jkfit.gbs 

  ==> Integral Setup <==

  ==> DiskDFJK: Density-Fitted J/K Matrices <==

    J tasked:                  Yes
    K tasked:                  Yes
    wK tasked:                  No
    OpenMP threads:              6
    Integrals threads:           6
    Memory [MiB]:             5006
    Algorithm:                Core
    Integral Cache:           LOAD
    Schwarz Cutoff:          1E-12
    Fitting Condition:       1E-10

   => Auxiliary Basis Set <=

  Basis Set: (AUG-CC-PVDZ AUX)
    Blend: AUG-CC-PVDZ-JKFIT
    Number of shells: 376
    Number of basis functions: 1116
    Number of Cartesian functions: 1290
    Spherical Harmonics?: true
    Max angular momentum: 3

  Minimum eigenvalue in the overlap matrix is 3.0333045754E-05.
  Reciprocal condition number of the overlap matrix is 2.4874251852E-06.
    Using symmetric orthogonalization.

  ==> Pre-Iterations <==

  SCF Guess: Superposition of Atomic Densities via on-the-fly atomic UHF (no occupation information).

   -------------------------
    Irrep   Nso     Nmo    
   -------------------------
     A        302     302 
   -------------------------
    Total     302     302
   -------------------------

  ==> Iterations <==

                           Total Energy        Delta E     RMS |[F,P]|

   @DF-RHF iter SAD:  -224.72194801313321   -2.24722e+02   0.00000e+00 
   @DF-RHF iter   1:  -224.63549170117270    8.64563e-02   1.50472e-03 DIIS
   @DF-RHF iter   2:  -224.73984613405193   -1.04354e-01   6.88462e-04 DIIS
   @DF-RHF iter   3:  -224.76075487307045   -2.09087e-02   1.48626e-04 DIIS
   @DF-RHF iter   4:  -224.76213931685291   -1.38444e-03   6.05310e-05 DIIS
   @DF-RHF iter   5:  -224.76231767161443   -1.78355e-04   1.19893e-05 DIIS
   @DF-RHF iter   6:  -224.76233462909042   -1.69575e-05   4.96772e-06 DIIS
   @DF-RHF iter   7:  -224.76233858512828   -3.95604e-06   2.18806e-06 DIIS
   @DF-RHF iter   8:  -224.76233934587060   -7.60742e-07   1.01700e-06 DIIS
   @DF-RHF iter   9:  -224.76233951351315   -1.67643e-07   2.83302e-07 DIIS
   @DF-RHF iter  10:  -224.76233952233378   -8.82062e-09   8.55547e-08 DIIS
   @DF-RHF iter  11:  -224.76233952302320   -6.89425e-10   1.99714e-08 DIIS
   @DF-RHF iter  12:  -224.76233952306941   -4.62137e-11   5.81092e-09 DIIS
   @DF-RHF iter  13:  -224.76233952307359   -4.17799e-12   2.83097e-09 DIIS
   @DF-RHF iter  14:  -224.76233952307453   -9.37916e-13   9.75192e-10 DIIS
   @DF-RHF iter  15:  -224.76233952307456   -2.84217e-14   4.15547e-10 DIIS
   @DF-RHF iter  16:  -224.76233952307481   -2.55795e-13   1.25998e-10 DIIS
   @DF-RHF iter  17:  -224.76233952307484   -2.84217e-14   4.47780e-11 DIIS
  Energy and wave function converged.


  ==> Post-Iterations <==

    Orbital Energies [Eh]
    ---------------------

    Doubly Occupied:                                                      

       1A    -15.636223     2A    -15.592313     3A    -11.279894  
       4A    -11.237784     5A    -11.209891     6A     -1.386922  
       7A     -1.121901     8A     -1.066898     9A     -0.872768  
      10A     -0.837061    11A     -0.757292    12A     -0.645746  
      13A     -0.620834    14A     -0.609140    15A     -0.583920  
      16A     -0.461404    17A     -0.370721    18A     -0.346048  

    Virtual:                                                              

      19A      0.022081    20A      0.030760    21A      0.039458  
      22A      0.042368    23A      0.043568    24A      0.049159  
      25A      0.063518    26A      0.065327    27A      0.083322  
      28A      0.090202    29A      0.098369    30A      0.100998  
      31A      0.104029    32A      0.117179    33A      0.117698  
      34A      0.125264    35A      0.126269    36A      0.127604  
      37A      0.132709    38A      0.133076    39A      0.133567  
      40A      0.138404    41A      0.141498    42A      0.156890  
      43A      0.157965    44A      0.164591    45A      0.165346  
      46A      0.171075    47A      0.178390    48A      0.178622  
      49A      0.194897    50A      0.196049    51A      0.200935  
      52A      0.204794    53A      0.206162    54A      0.222366  
      55A      0.224518    56A      0.227670    57A      0.234998  
      58A      0.240237    59A      0.243626    60A      0.244965  
      61A      0.263519    62A      0.270420    63A      0.271128  
      64A      0.279081    65A      0.301010    66A      0.321361  
      67A      0.325148    68A      0.339476    69A      0.352358  
      70A      0.355358    71A      0.365938    72A      0.372297  
      73A      0.374908    74A      0.383138    75A      0.396065  
      76A      0.402741    77A      0.414998    78A      0.426900  
      79A      0.431472    80A      0.432136    81A      0.440587  
      82A      0.441717    83A      0.443385    84A      0.453393  
      85A      0.455441    86A      0.456850    87A      0.459816  
      88A      0.461291    89A      0.478655    90A      0.498543  
      91A      0.508690    92A      0.509137    93A      0.518855  
      94A      0.521919    95A      0.532550    96A      0.537482  
      97A      0.541563    98A      0.558758    99A      0.568254  
     100A      0.571251   101A      0.574432   102A      0.586318  
     103A      0.590538   104A      0.594582   105A      0.602413  
     106A      0.612785   107A      0.620687   108A      0.620953  
     109A      0.632938   110A      0.646110   111A      0.655296  
     112A      0.676162   113A      0.690262   114A      0.698041  
     115A      0.700391   116A      0.707225   117A      0.718883  
     118A      0.721667   119A      0.725115   120A      0.735094  
     121A      0.744790   122A      0.747709   123A      0.758592  
     124A      0.773318   125A      0.781481   126A      0.789153  
     127A      0.797521   128A      0.813859   129A      0.820362  
     130A      0.828504   131A      0.838230   132A      0.848394  
     133A      0.851357   134A      0.854519   135A      0.870443  
     136A      0.880507   137A      0.881395   138A      0.888767  
     139A      0.895134   140A      0.906950   141A      0.915575  
     142A      0.924815   143A      0.942583   144A      0.951548  
     145A      0.978222   146A      0.984850   147A      0.996630  
     148A      1.011149   149A      1.023634   150A      1.029707  
     151A      1.046606   152A      1.051103   153A      1.066503  
     154A      1.070579   155A      1.080464   156A      1.100852  
     157A      1.107678   158A      1.128058   159A      1.134196  
     160A      1.150236   161A      1.158280   162A      1.165804  
     163A      1.175168   164A      1.184475   165A      1.220548  
     166A      1.221225   167A      1.236539   168A      1.267507  
     169A      1.269557   170A      1.293258   171A      1.303342  
     172A      1.311399   173A      1.314659   174A      1.340202  
     175A      1.365807   176A      1.381361   177A      1.401044  
     178A      1.434520   179A      1.444252   180A      1.474691  
     181A      1.492746   182A      1.506554   183A      1.512027  
     184A      1.526129   185A      1.560989   186A      1.590882  
     187A      1.608669   188A      1.637438   189A      1.669472  
     190A      1.676247   191A      1.688436   192A      1.703634  
     193A      1.723950   194A      1.749215   195A      1.764374  
     196A      1.805048   197A      1.875633   198A      1.932391  
     199A      1.943558   200A      1.988067   201A      2.021445  
     202A      2.040600   203A      2.057611   204A      2.088839  
     205A      2.108588   206A      2.134372   207A      2.144687  
     208A      2.167632   209A      2.190005   210A      2.200827  
     211A      2.216168   212A      2.230457   213A      2.233384  
     214A      2.261391   215A      2.275825   216A      2.277295  
     217A      2.288795   218A      2.307640   219A      2.335241  
     220A      2.360716   221A      2.380122   222A      2.389130  
     223A      2.393822   224A      2.394064   225A      2.435246  
     226A      2.443405   227A      2.464967   228A      2.477857  
     229A      2.499427   230A      2.513171   231A      2.531798  
     232A      2.548346   233A      2.570232   234A      2.584716  
     235A      2.630884   236A      2.642961   237A      2.667056  
     238A      2.702558   239A      2.718428   240A      2.733029  
     241A      2.826837   242A      2.827457   243A      2.834751  
     244A      2.869347   245A      2.889555   246A      2.901587  
     247A      2.918598   248A      2.944699   249A      2.999157  
     250A      3.027612   251A      3.055324   252A      3.089367  
     253A      3.092359   254A      3.122731   255A      3.139574  
     256A      3.181520   257A      3.188931   258A      3.222008  
     259A      3.253692   260A      3.288754   261A      3.297865  
     262A      3.355315   263A      3.380236   264A      3.395155  
     265A      3.423039   266A      3.447853   267A      3.486707  
     268A      3.497045   269A      3.520728   270A      3.633132  
     271A      3.666500   272A      3.686563   273A      3.735167  
     274A      3.769639   275A      3.850710   276A      3.889327  
     277A      3.963940   278A      4.035075   279A      4.094311  
     280A      4.209428   281A      4.243637   282A      4.447989  
     283A      4.463235   284A      4.657991   285A      4.707599  
     286A      4.749475   287A      4.810336   288A      4.994419  
     289A      5.076364   290A      5.241003   291A      5.530803  
     292A      5.668516   293A      5.826398   294A      6.106262  
     295A      6.317872   296A      6.707948   297A      6.967439  
     298A     18.110730   299A     18.647411   300A     19.373128  
     301A     25.245130   302A     25.704518  

    Final Occupation by Irrep:
              A 
    DOCC [    18 ]

  @DF-RHF Final Energy:  -224.76233952307484

   => Energetics <=

    Nuclear Repulsion Energy =            166.6240564503272026
    One-Electron Energy =                -633.4992734027093775
    Two-Electron Energy =                 242.1128774293073320
    Total Energy =                       -224.7623395230748429

Computation Completed


Properties will be evaluated at   0.000000,   0.000000,   0.000000 [a0]

Properties computed using the SCF density matrix

  Nuclear Dipole Moment: [e a0]
     X:   162.5886      Y:  -104.5054      Z:    23.1563

  Electronic Dipole Moment: [e a0]
     X:  -162.9913      Y:   105.1370      Z:   -22.5767

  Dipole Moment: [e a0]
     X:    -0.4027      Y:     0.6317      Z:     0.5796     Total:     0.9472

  Dipole Moment: [D]
     X:    -1.0235      Y:     1.6055      Z:     1.4733     Total:     2.4075


*** tstop() called on ds1 at Mon Oct  4 14:26:40 2021
Module time:
	user time   =      17.28 seconds =       0.29 minutes
	system time =       0.38 seconds =       0.01 minutes
	total time  =          3 seconds =       0.05 minutes
Total time:
	user time   =      40.83 seconds =       0.68 minutes
	system time =       0.98 seconds =       0.02 minutes
	total time  =          8 seconds =       0.13 minutes

  //>>>>>>>>>>>>>>>>>>>>>>>>>>>>>>>>>>>//
  //            Monomer B HF           //
  //<<<<<<<<<<<<<<<<<<<<<<<<<<<<<<<<<<<//


*** tstart() called on ds1
*** at Mon Oct  4 14:26:40 2021

   => Loading Basis Set <=

    Name: AUG-CC-PVDZ
    Role: ORBITAL
    Keyword: BASIS
    atoms 1-2, 10-11 entry N          line   218 file /theoryfs2/ds/csargent/miniconda3/envs/cle/share/psi4/basis/aug-cc-pvdz.gbs 
    atoms 3-6, 12-15 entry H          line    40 file /theoryfs2/ds/csargent/miniconda3/envs/cle/share/psi4/basis/aug-cc-pvdz.gbs 
    atoms 7-9, 16-18 entry C          line   182 file /theoryfs2/ds/csargent/miniconda3/envs/cle/share/psi4/basis/aug-cc-pvdz.gbs 


         ---------------------------------------------------------
                                   SCF
               by Justin Turney, Rob Parrish, Andy Simmonett
                          and Daniel G. A. Smith
                              RHF Reference
                        6 Threads,   6675 MiB Core
         ---------------------------------------------------------

  ==> Geometry <==

    Molecular point group: c1
    Full point group: C1

    Geometry (in Bohr), charge = 0, multiplicity = 1:

       Center              X                  Y                   Z               Mass       
    ------------   -----------------  -----------------  -----------------  -----------------
      Gh(N)           6.279812100000    -4.253033720000     0.193138650000    14.003074004430
      Gh(N)           6.068707770000    -2.281256970000     1.805443170000    14.003074004430
      Gh(H)           3.668711560000    -5.646289410000    -1.966840010000     1.007825032230
      Gh(H)           0.690345210000    -2.375456940000    -0.428642360000     1.007825032230
      Gh(H)           3.359174420000     0.176506010000     3.092650170000     1.007825032230
      Gh(H)           7.352667820000    -1.994613110000     2.906807020000     1.007825032230
      Gh(C)           3.779525860000    -1.215084530000     1.768581720000    12.000000000000
      Gh(C)           2.382429980000    -2.555055380000     0.046076810000    12.000000000000
      Gh(C)           4.017714680000    -4.384104900000    -0.887618630000    12.000000000000
         N           -1.458616380000    28.148427370000    -0.147061830000    14.003074004430
         N           -1.669720710000    26.176650620000    -1.759366350000    14.003074004430
         H           -4.069716920000    29.541683060000     2.012916820000     1.007825032230
         H           -7.048083280000    26.270850600000     0.474719180000     1.007825032230
         H           -4.379254060000    23.718887640000    -3.046573350000     1.007825032230
         H           -0.385760660000    25.890006760000    -2.860730200000     1.007825032230
         C           -3.958902630000    25.110478180000    -1.722504900000    12.000000000000
         C           -5.355998510000    26.450449030000     0.000000000000    12.000000000000
         C           -3.720713800000    28.279498550000     0.933695440000    12.000000000000

  Running in c1 symmetry.

  Rotational constants: A =      0.03527  B =      0.00118  C =      0.00115 [cm^-1]
  Rotational constants: A =   1057.40234  B =     35.45841  C =     34.54597 [MHz]
  Nuclear repulsion =  166.624056405329469

  Charge       = 0
  Multiplicity = 1
  Electrons    = 36
  Nalpha       = 18
  Nbeta        = 18

  ==> Algorithm <==

  SCF Algorithm Type is DF.
  DIIS enabled.
  MOM disabled.
  Fractional occupation disabled.
  Guess Type is SAD.
  Energy threshold   = 1.00e-10
  Density threshold  = 1.00e-10
  Integral threshold = 1.00e-12

  ==> Primary Basis <==

  Basis Set: AUG-CC-PVDZ
    Blend: AUG-CC-PVDZ
    Number of shells: 130
    Number of basis functions: 302
    Number of Cartesian functions: 322
    Spherical Harmonics?: true
    Max angular momentum: 2

   => Loading Basis Set <=

    Name: (AUG-CC-PVDZ AUX)
    Role: JKFIT
    Keyword: DF_BASIS_SCF
    atoms 1-2, 10-11 entry N          line   212 file /theoryfs2/ds/csargent/miniconda3/envs/cle/share/psi4/basis/aug-cc-pvdz-jkfit.gbs 
    atoms 3-6, 12-15 entry H          line    70 file /theoryfs2/ds/csargent/miniconda3/envs/cle/share/psi4/basis/aug-cc-pvdz-jkfit.gbs 
    atoms 7-9, 16-18 entry C          line   154 file /theoryfs2/ds/csargent/miniconda3/envs/cle/share/psi4/basis/aug-cc-pvdz-jkfit.gbs 

  ==> Integral Setup <==

  ==> DiskDFJK: Density-Fitted J/K Matrices <==

    J tasked:                  Yes
    K tasked:                  Yes
    wK tasked:                  No
    OpenMP threads:              6
    Integrals threads:           6
    Memory [MiB]:             5006
    Algorithm:                Core
    Integral Cache:           LOAD
    Schwarz Cutoff:          1E-12
    Fitting Condition:       1E-10

   => Auxiliary Basis Set <=

  Basis Set: (AUG-CC-PVDZ AUX)
    Blend: AUG-CC-PVDZ-JKFIT
    Number of shells: 376
    Number of basis functions: 1116
    Number of Cartesian functions: 1290
    Spherical Harmonics?: true
    Max angular momentum: 3

  Minimum eigenvalue in the overlap matrix is 3.0333045754E-05.
  Reciprocal condition number of the overlap matrix is 2.4874251852E-06.
    Using symmetric orthogonalization.

  ==> Pre-Iterations <==

  SCF Guess: Superposition of Atomic Densities via on-the-fly atomic UHF (no occupation information).

   -------------------------
    Irrep   Nso     Nmo    
   -------------------------
     A        302     302 
   -------------------------
    Total     302     302
   -------------------------

  ==> Iterations <==

                           Total Energy        Delta E     RMS |[F,P]|

   @DF-RHF iter SAD:  -224.72194800862712   -2.24722e+02   0.00000e+00 
   @DF-RHF iter   1:  -224.63549170234648    8.64563e-02   1.50472e-03 DIIS
   @DF-RHF iter   2:  -224.73984613513801   -1.04354e-01   6.88462e-04 DIIS
   @DF-RHF iter   3:  -224.76075487401653   -2.09087e-02   1.48626e-04 DIIS
   @DF-RHF iter   4:  -224.76213931781277   -1.38444e-03   6.05310e-05 DIIS
   @DF-RHF iter   5:  -224.76231767257727   -1.78355e-04   1.19893e-05 DIIS
   @DF-RHF iter   6:  -224.76233463005340   -1.69575e-05   4.96772e-06 DIIS
   @DF-RHF iter   7:  -224.76233858609186   -3.95604e-06   2.18806e-06 DIIS
   @DF-RHF iter   8:  -224.76233934683481   -7.60743e-07   1.01700e-06 DIIS
   @DF-RHF iter   9:  -224.76233951447645   -1.67642e-07   2.83302e-07 DIIS
   @DF-RHF iter  10:  -224.76233952329704   -8.82059e-09   8.55547e-08 DIIS
   @DF-RHF iter  11:  -224.76233952398707   -6.90022e-10   1.99714e-08 DIIS
   @DF-RHF iter  12:  -224.76233952403268   -4.56168e-11   5.81092e-09 DIIS
   @DF-RHF iter  13:  -224.76233952403706   -4.37694e-12   2.83097e-09 DIIS
   @DF-RHF iter  14:  -224.76233952403817   -1.10845e-12   9.75191e-10 DIIS
   @DF-RHF iter  15:  -224.76233952403783    3.41061e-13   4.15548e-10 DIIS
   @DF-RHF iter  16:  -224.76233952403823   -3.97904e-13   1.25998e-10 DIIS
   @DF-RHF iter  17:  -224.76233952403805    1.70530e-13   4.47779e-11 DIIS
  Energy and wave function converged.


  ==> Post-Iterations <==

    Orbital Energies [Eh]
    ---------------------

    Doubly Occupied:                                                      

       1A    -15.636223     2A    -15.592313     3A    -11.279894  
       4A    -11.237784     5A    -11.209891     6A     -1.386922  
       7A     -1.121901     8A     -1.066898     9A     -0.872768  
      10A     -0.837061    11A     -0.757292    12A     -0.645746  
      13A     -0.620834    14A     -0.609140    15A     -0.583920  
      16A     -0.461404    17A     -0.370721    18A     -0.346048  

    Virtual:                                                              

      19A      0.022207    20A      0.030760    21A      0.039605  
      22A      0.042367    23A      0.043638    24A      0.049160  
      25A      0.063518    26A      0.065449    27A      0.083475  
      28A      0.090349    29A      0.098495    30A      0.100998  
      31A      0.104029    32A      0.117178    33A      0.117823  
      34A      0.125370    35A      0.126267    36A      0.127707  
      37A      0.132805    38A      0.133127    39A      0.133654  
      40A      0.138404    41A      0.141495    42A      0.156889  
      43A      0.158029    44A      0.164592    45A      0.165469  
      46A      0.171075    47A      0.178403    48A      0.178739  
      49A      0.195087    50A      0.196041    51A      0.201127  
      52A      0.204794    53A      0.206162    54A      0.222543  
      55A      0.224657    56A      0.227805    57A      0.235149  
      58A      0.240237    59A      0.243626    60A      0.244966  
      61A      0.263643    62A      0.270600    63A      0.271127  
      64A      0.279081    65A      0.301010    66A      0.321504  
      67A      0.325148    68A      0.339615    69A      0.352359  
      70A      0.355359    71A      0.366097    72A      0.372405  
      73A      0.374907    74A      0.383267    75A      0.396063  
      76A      0.402741    77A      0.414998    78A      0.427039  
      79A      0.431604    80A      0.432132    81A      0.440672  
      82A      0.441821    83A      0.443385    84A      0.453393  
      85A      0.455591    86A      0.456978    87A      0.459816  
      88A      0.461445    89A      0.478655    90A      0.498543  
      91A      0.508688    92A      0.509290    93A      0.519025  
      94A      0.521917    95A      0.532722    96A      0.537590  
      97A      0.541563    98A      0.558877    99A      0.568440  
     100A      0.571367   101A      0.574433   102A      0.586318  
     103A      0.590538   104A      0.594710   105A      0.602413  
     106A      0.612895   107A      0.620827   108A      0.620953  
     109A      0.633076   110A      0.646110   111A      0.655296  
     112A      0.676162   113A      0.690400   114A      0.698041  
     115A      0.700391   116A      0.707383   117A      0.719002  
     118A      0.721668   119A      0.725115   120A      0.735213  
     121A      0.744907   122A      0.747709   123A      0.758592  
     124A      0.773318   125A      0.781481   126A      0.789287  
     127A      0.797682   128A      0.813984   129A      0.820485  
     130A      0.828504   131A      0.838230   132A      0.848394  
     133A      0.851468   134A      0.854656   135A      0.870553  
     136A      0.880624   137A      0.881396   138A      0.888768  
     139A      0.895264   140A      0.906950   141A      0.915728  
     142A      0.924815   143A      0.942583   144A      0.951692  
     145A      0.978222   146A      0.984850   147A      0.996771  
     148A      1.011149   149A      1.023765   150A      1.029872  
     151A      1.046606   152A      1.051267   153A      1.066503  
     154A      1.070689   155A      1.080568   156A      1.100852  
     157A      1.107831   158A      1.128058   159A      1.134196  
     160A      1.150236   161A      1.158447   162A      1.165952  
     163A      1.175168   164A      1.184610   165A      1.220548  
     166A      1.221406   167A      1.236701   168A      1.267662  
     169A      1.269556   170A      1.293432   171A      1.303342  
     172A      1.311399   173A      1.314806   174A      1.340347  
     175A      1.365807   176A      1.381504   177A      1.401044  
     178A      1.434695   179A      1.444417   180A      1.474691  
     181A      1.492911   182A      1.506724   183A      1.512027  
     184A      1.526129   185A      1.560989   186A      1.590882  
     187A      1.608669   188A      1.637437   189A      1.669472  
     190A      1.676417   191A      1.688611   192A      1.703634  
     193A      1.723950   194A      1.749215   195A      1.764374  
     196A      1.805048   197A      1.875632   198A      1.932391  
     199A      1.943558   200A      1.988067   201A      2.021445  
     202A      2.040710   203A      2.057611   204A      2.088839  
     205A      2.108720   206A      2.134490   207A      2.144687  
     208A      2.167716   209A      2.190005   210A      2.200827  
     211A      2.216294   212A      2.230457   213A      2.233492  
     214A      2.261512   215A      2.275825   216A      2.277408  
     217A      2.288915   218A      2.307640   219A      2.335375  
     220A      2.360716   221A      2.380237   222A      2.389130  
     223A      2.393822   224A      2.394193   225A      2.435246  
     226A      2.443531   227A      2.464967   228A      2.477972  
     229A      2.499522   230A      2.513359   231A      2.531798  
     232A      2.548457   233A      2.570232   234A      2.584716  
     235A      2.631016   236A      2.642961   237A      2.667205  
     238A      2.702714   239A      2.718562   240A      2.733029  
     241A      2.826838   242A      2.827582   243A      2.834751  
     244A      2.869516   245A      2.889687   246A      2.901587  
     247A      2.918598   248A      2.944835   249A      2.999157  
     250A      3.027745   251A      3.055324   252A      3.089519  
     253A      3.092359   254A      3.122731   255A      3.139695  
     256A      3.181662   257A      3.188930   258A      3.222008  
     259A      3.253847   260A      3.288909   261A      3.297865  
     262A      3.355483   263A      3.380236   264A      3.395316  
     265A      3.423218   266A      3.447988   267A      3.486852  
     268A      3.497164   269A      3.520728   270A      3.633291  
     271A      3.666656   272A      3.686563   273A      3.735308  
     274A      3.769812   275A      3.850897   276A      3.889327  
     277A      3.964072   278A      4.035256   279A      4.094475  
     280A      4.209428   281A      4.243793   282A      4.448141  
     283A      4.463235   284A      4.658162   285A      4.707770  
     286A      4.749610   287A      4.810497   288A      4.994569  
     289A      5.076529   290A      5.241154   291A      5.530960  
     292A      5.668696   293A      5.826560   294A      6.106424  
     295A      6.317970   296A      6.708077   297A      6.967608  
     298A     18.110841   299A     18.647543   300A     19.373247  
     301A     25.245308   302A     25.704707  

    Final Occupation by Irrep:
              A 
    DOCC [    18 ]

  @DF-RHF Final Energy:  -224.76233952403805

   => Energetics <=

    Nuclear Repulsion Energy =            166.6240564053294690
    One-Electron Energy =                -633.4992733174351542
    Two-Electron Energy =                 242.1128773880676022
    Total Energy =                       -224.7623395240380546

Computation Completed


Properties will be evaluated at   0.000000,   0.000000,   0.000000 [a0]

Properties computed using the SCF density matrix

  Nuclear Dipole Moment: [e a0]
     X:  -115.9949      Y:   964.7395      Z:   -21.4975

  Electronic Dipole Moment: [e a0]
     X:   115.5922      Y:  -965.3712      Z:    20.9179

  Dipole Moment: [e a0]
     X:    -0.4027      Y:    -0.6317      Z:    -0.5796     Total:     0.9472

  Dipole Moment: [D]
     X:    -1.0235      Y:    -1.6055      Z:    -1.4733     Total:     2.4075


*** tstop() called on ds1 at Mon Oct  4 14:26:44 2021
Module time:
	user time   =      17.03 seconds =       0.28 minutes
	system time =       0.35 seconds =       0.01 minutes
	total time  =          4 seconds =       0.07 minutes
Total time:
	user time   =      57.89 seconds =       0.96 minutes
	system time =       1.33 seconds =       0.02 minutes
	total time  =         12 seconds =       0.20 minutes
  Constructing Basis Sets for SAPT...

   => Loading Basis Set <=

    Name: (AUG-CC-PVDZ AUX)
    Role: RIFIT
    Keyword: DF_BASIS_SAPT
    atoms 1-2, 10-11 entry N          line   158 file /theoryfs2/ds/csargent/miniconda3/envs/cle/share/psi4/basis/aug-cc-pvdz-ri.gbs 
    atoms 3-6, 12-15 entry H          line    30 file /theoryfs2/ds/csargent/miniconda3/envs/cle/share/psi4/basis/aug-cc-pvdz-ri.gbs 
    atoms 7-9, 16-18 entry C          line   112 file /theoryfs2/ds/csargent/miniconda3/envs/cle/share/psi4/basis/aug-cc-pvdz-ri.gbs 


  //>>>>>>>>>>>>>>>>>>>>>>>>>>>>>>>>>>>//
  //               SAPT0               //
  //<<<<<<<<<<<<<<<<<<<<<<<<<<<<<<<<<<<//


*** tstart() called on ds1
*** at Mon Oct  4 14:26:44 2021

        SAPT0  
    Ed Hohenstein
     6 June 2009

      Orbital Information
  --------------------------
    NSO        =       302
    NMO        =       302
    NRI        =       904
    NOCC A     =        18
    NOCC B     =        18
    FOCC A     =         5
    FOCC B     =         5
    NVIR A     =       284
    NVIR B     =       284

    Elst10,r            =    -0.000007431354 [Eh]
    Exch10              =     0.000000000001 [Eh]
    Exch10 (S^2)        =     0.000000000001 [Eh]

    Iter     Energy [mEh]          dE [mEh]         Residual      Time [s]
       1      -0.00004610       0.000046102       0.070703152             0
       2      -0.00004245      -0.000003650       0.018259587             0
       3      -0.00004570       0.000003244       0.008295941             1
       4      -0.00004680       0.000001107       0.001611262             1
       5      -0.00004669      -0.000000115       0.000814556             1
       6      -0.00004665      -0.000000037       0.000282393             1
       7      -0.00004666       0.000000006       0.000134856             1
       8      -0.00004666       0.000000006       0.000052316             1
       9      -0.00004666      -0.000000000       0.000016414             1
      10      -0.00004666      -0.000000001       0.000003727             1
      11      -0.00004666       0.000000000       0.000001456             2
      12      -0.00004666       0.000000000       0.000000571             2

    CHF Iterations converged


    Iter     Energy [mEh]          dE [mEh]         Residual      Time [s]
       1      -0.00004037       0.000040375       0.059606131             0
       2      -0.00003670      -0.000003674       0.014040827             0
       3      -0.00003911       0.000002405       0.007743805             0
       4      -0.00004015       0.000001041       0.001362709             0
       5      -0.00004001      -0.000000141       0.000700458             0
       6      -0.00003999      -0.000000019       0.000310108             0
       7      -0.00004000       0.000000018       0.000119779             1
       8      -0.00004001       0.000000002       0.000043691             1
       9      -0.00004000      -0.000000001       0.000010529             1
      10      -0.00004000      -0.000000000       0.000003359             1
      11      -0.00004000       0.000000000       0.000001479             1
      12      -0.00004000       0.000000000       0.000000502             1

    CHF Iterations converged

    Ind20,r (A<-B)      =    -0.000000046662 [Eh]
    Ind20,r (B<-A)      =    -0.000000040005 [Eh]
    Ind20,r             =    -0.000000086667 [Eh]
    Exch-Ind20,r (A<-B) =     0.000000000001 [Eh]
    Exch-Ind20,r (B<-A) =     0.000000000001 [Eh]
    Exch-Ind20,r        =     0.000000000002 [Eh]
    Disp20              =    -0.000001412458 [Eh]
    Disp20 (SS)         =    -0.000000706229 [Eh]
    Disp20 (OS)         =    -0.000000706229 [Eh]
    Exch-Disp20         =     0.000000000000 [Eh]
    Exch-Disp20 (SS)    =     0.000000000000 [Eh]
    Exch-Disp20 (OS)    =     0.000000000000 [Eh]

    SAPT Results 
  --------------------------------------------------------------------------------------------------------
    Electrostatics                 -0.00743135 [mEh]      -0.00466325 [kcal/mol]      -0.01951102 [kJ/mol]
      Elst10,r                     -0.00743135 [mEh]      -0.00466325 [kcal/mol]      -0.01951102 [kJ/mol]

    Exchange                        0.00000000 [mEh]       0.00000000 [kcal/mol]       0.00000000 [kJ/mol]
      Exch10                        0.00000000 [mEh]       0.00000000 [kcal/mol]       0.00000000 [kJ/mol]
      Exch10(S^2)                   0.00000000 [mEh]       0.00000000 [kcal/mol]       0.00000000 [kJ/mol]

    Induction                       0.00000908 [mEh]       0.00000570 [kcal/mol]       0.00002383 [kJ/mol]
      Ind20,r                      -0.00008667 [mEh]      -0.00005438 [kcal/mol]      -0.00022754 [kJ/mol]
      Exch-Ind20,r                  0.00000000 [mEh]       0.00000000 [kcal/mol]       0.00000000 [kJ/mol]
      delta HF,r (2)                0.00009574 [mEh]       0.00006008 [kcal/mol]       0.00025137 [kJ/mol]

    Dispersion                     -0.00141246 [mEh]      -0.00088633 [kcal/mol]      -0.00370841 [kJ/mol]
      Disp20                       -0.00141246 [mEh]      -0.00088633 [kcal/mol]      -0.00370841 [kJ/mol]
      Exch-Disp20                   0.00000000 [mEh]       0.00000000 [kcal/mol]       0.00000000 [kJ/mol]
      Disp20 (SS)                  -0.00070623 [mEh]      -0.00044317 [kcal/mol]      -0.00185420 [kJ/mol]
      Disp20 (OS)                  -0.00070623 [mEh]      -0.00044317 [kcal/mol]      -0.00185420 [kJ/mol]
      Exch-Disp20 (SS)              0.00000000 [mEh]       0.00000000 [kcal/mol]       0.00000000 [kJ/mol]
      Exch-Disp20 (OS)              0.00000000 [mEh]       0.00000000 [kcal/mol]       0.00000000 [kJ/mol]

  Total HF                         -0.00742228 [mEh]      -0.00465755 [kcal/mol]      -0.01948718 [kJ/mol]
  Total SAPT0                      -0.00883473 [mEh]      -0.00554388 [kcal/mol]      -0.02319559 [kJ/mol]

  Special recipe for scaled SAPT0 (see Manual):
    Electrostatics sSAPT0          -0.00743135 [mEh]      -0.00466325 [kcal/mol]      -0.01951102 [kJ/mol]
    Exchange sSAPT0                 0.00000000 [mEh]       0.00000000 [kcal/mol]       0.00000000 [kJ/mol]
    Induction sSAPT0                0.00000908 [mEh]       0.00000570 [kcal/mol]       0.00002383 [kJ/mol]
    Dispersion sSAPT0              -0.00141246 [mEh]      -0.00088633 [kcal/mol]      -0.00370841 [kJ/mol]
  Total sSAPT0                     -0.00883473 [mEh]      -0.00554388 [kcal/mol]      -0.02319559 [kJ/mol]
  --------------------------------------------------------------------------------------------------------

*** tstop() called on ds1 at Mon Oct  4 14:26:54 2021
Module time:
	user time   =      45.49 seconds =       0.76 minutes
	system time =       3.98 seconds =       0.07 minutes
	total time  =         10 seconds =       0.17 minutes
Total time:
	user time   =     104.26 seconds =       1.74 minutes
	system time =       5.34 seconds =       0.09 minutes
	total time  =         22 seconds =       0.37 minutes


Warning! sapt0 does not have an associated derived wavefunction.The returned wavefunction is the dimer SCF wavefunction.


    Psi4 stopped on: Monday, 04 October 2021 02:26PM
    Psi4 wall time for execution: 0:00:22.15

*** Psi4 exiting successfully. Buy a developer a beer!
