
    -----------------------------------------------------------------------
          Psi4: An Open-Source Ab Initio Electronic Structure Package
                               Psi4 1.4rc3 

                         Git: Rev {HEAD} 080dba6 


    D. G. A. Smith, L. A. Burns, A. C. Simmonett, R. M. Parrish,
    M. C. Schieber, R. Galvelis, P. Kraus, H. Kruse, R. Di Remigio,
    A. Alenaizan, A. M. James, S. Lehtola, J. P. Misiewicz, M. Scheurer,
    R. A. Shaw, J. B. Schriber, Y. Xie, Z. L. Glick, D. A. Sirianni,
    J. S. O'Brien, J. M. Waldrop, A. Kumar, E. G. Hohenstein,
    B. P. Pritchard, B. R. Brooks, H. F. Schaefer III, A. Yu. Sokolov,
    K. Patkowski, A. E. DePrince III, U. Bozkaya, R. A. King,
    F. A. Evangelista, J. M. Turney, T. D. Crawford, C. D. Sherrill,
    J. Chem. Phys. 152(18) 184108 (2020). https://doi.org/10.1063/5.0006002

                            Additional Code Authors
    E. T. Seidl, C. L. Janssen, E. F. Valeev, M. L. Leininger,
    J. F. Gonthier, R. M. Richard, H. R. McAlexander, M. Saitow, X. Wang,
    P. Verma, and M. H. Lechner

             Previous Authors, Complete List of Code Contributors,
                       and Citations for Specific Modules
    https://github.com/psi4/psi4/blob/master/codemeta.json
    https://github.com/psi4/psi4/graphs/contributors
    http://psicode.org/psi4manual/master/introduction.html#citing-psifour

    -----------------------------------------------------------------------


    Psi4 started on: Monday, 04 October 2021 03:53PM

    Process ID: 14062
    Host:       ds1
    PSIDATADIR: /theoryfs2/ds/csargent/miniconda3/envs/cle/share/psi4
    Memory:     500.0 MiB
    Threads:    6
    
  ==> Input File <==

--------------------------------------------------------------------------
# PSI4 file produced by CrystaLattE

# Generated from:               pyrazole.xyz
# Psithon input for N-mer:      2mer-0+291
# Number of atoms per monomer:  [9, 9]
# Number of replicas:           1
# COM priority:                 1.659236652615e-05
# Minimum COM separations:      20.747 
# Separation priority:          3.101834446063e-05
# Minimum monomer separations:  16.842 
# Cutoff priority:              9.745964371275e-07
# Nuclear repulsion energy:     366.4135481801528

memory 7 GB

molecule Dimer_0_291 {
  N            6.27981210      -4.25303372       0.19313865 
  N            6.06870777      -2.28125697       1.80544317 
  H            3.66871156      -5.64628941      -1.96684001 
  H            0.69034521      -2.37545694      -0.42864236 
  H            3.35917442       0.17650601       3.09265017 
  H            7.35266782      -1.99461311       2.90680702 
  C            3.77952586      -1.21508453       1.76858172 
  C            2.38242998      -2.55505538       0.04607681 
  C            4.01771468      -4.38410490      -0.88761863 
--
  N          -35.89400406      -9.49302627      -1.54178140 
  N          -35.77514180      -7.45511923      -0.00460768 
  H          -33.22084133     -11.89393623      -2.25981175 
  H          -30.32620477      -9.45139749       0.49532575 
  H          -33.26262884      -5.73834848       2.39996206 
  H          -37.23755002      -6.64514217       0.38115765 
  C          -33.49230540      -7.12494356       1.02444117 
  C          -32.00931296      -9.05461578       0.13451870 
  C          -33.57061830     -10.43978359      -1.45717925 
units = au
no_com
no_reorient
}

set {
  e_convergence 10
  d_convergence 10
  scf_type df
  mp2_type df
  cc_type df
  freeze_core true
}

energy('sapt0/aug-cc-pvdz')

--------------------------------------------------------------------------

  Memory set to   6.519 GiB by Python driver.

Scratch directory: /scratch/csargent/psi4.7158.66302/

Scratch directory: /scratch/csargent/psi4.7158.66302/

  //>>>>>>>>>>>>>>>>>>>>>>>>>>>>>>>>>>>//
  //              Dimer HF             //
  //<<<<<<<<<<<<<<<<<<<<<<<<<<<<<<<<<<<//


*** tstart() called on ds1
*** at Mon Oct  4 15:53:11 2021

   => Loading Basis Set <=

    Name: AUG-CC-PVDZ
    Role: ORBITAL
    Keyword: BASIS
    atoms 1-2, 10-11 entry N          line   218 file /theoryfs2/ds/csargent/miniconda3/envs/cle/share/psi4/basis/aug-cc-pvdz.gbs 
    atoms 3-6, 12-15 entry H          line    40 file /theoryfs2/ds/csargent/miniconda3/envs/cle/share/psi4/basis/aug-cc-pvdz.gbs 
    atoms 7-9, 16-18 entry C          line   182 file /theoryfs2/ds/csargent/miniconda3/envs/cle/share/psi4/basis/aug-cc-pvdz.gbs 


         ---------------------------------------------------------
                                   SCF
               by Justin Turney, Rob Parrish, Andy Simmonett
                          and Daniel G. A. Smith
                              RHF Reference
                        6 Threads,   6675 MiB Core
         ---------------------------------------------------------

  ==> Geometry <==

    Molecular point group: c1
    Full point group: C1

    Geometry (in Bohr), charge = 0, multiplicity = 1:

       Center              X                  Y                   Z               Mass       
    ------------   -----------------  -----------------  -----------------  -----------------
         N            6.279812100000    -4.253033720000     0.193138650000    14.003074004430
         N            6.068707770000    -2.281256970000     1.805443170000    14.003074004430
         H            3.668711560000    -5.646289410000    -1.966840010000     1.007825032230
         H            0.690345210000    -2.375456940000    -0.428642360000     1.007825032230
         H            3.359174420000     0.176506010000     3.092650170000     1.007825032230
         H            7.352667820000    -1.994613110000     2.906807020000     1.007825032230
         C            3.779525860000    -1.215084530000     1.768581720000    12.000000000000
         C            2.382429980000    -2.555055380000     0.046076810000    12.000000000000
         C            4.017714680000    -4.384104900000    -0.887618630000    12.000000000000
         N          -35.894004060000    -9.493026270000    -1.541781400000    14.003074004430
         N          -35.775141800000    -7.455119230000    -0.004607680000    14.003074004430
         H          -33.220841330000   -11.893936230000    -2.259811750000     1.007825032230
         H          -30.326204770000    -9.451397490000     0.495325750000     1.007825032230
         H          -33.262628840000    -5.738348480000     2.399962060000     1.007825032230
         H          -37.237550020000    -6.645142170000     0.381157650000     1.007825032230
         C          -33.492305400000    -7.124943560000     1.024441170000    12.000000000000
         C          -32.009312960000    -9.054615780000     0.134518700000    12.000000000000
         C          -33.570618300000   -10.439783590000    -1.457179250000    12.000000000000

  Running in c1 symmetry.

  Rotational constants: A =      0.03996  B =      0.00070  C =      0.00069 [cm^-1]
  Rotational constants: A =   1198.07975  B =     20.93735  C =     20.66412 [MHz]
  Nuclear repulsion =  366.413548143518312

  Charge       = 0
  Multiplicity = 1
  Electrons    = 72
  Nalpha       = 36
  Nbeta        = 36

  ==> Algorithm <==

  SCF Algorithm Type is DF.
  DIIS enabled.
  MOM disabled.
  Fractional occupation disabled.
  Guess Type is SAD.
  Energy threshold   = 1.00e-10
  Density threshold  = 1.00e-10
  Integral threshold = 1.00e-12

  ==> Primary Basis <==

  Basis Set: AUG-CC-PVDZ
    Blend: AUG-CC-PVDZ
    Number of shells: 130
    Number of basis functions: 302
    Number of Cartesian functions: 322
    Spherical Harmonics?: true
    Max angular momentum: 2

   => Loading Basis Set <=

    Name: (AUG-CC-PVDZ AUX)
    Role: JKFIT
    Keyword: DF_BASIS_SCF
    atoms 1-2, 10-11 entry N          line   212 file /theoryfs2/ds/csargent/miniconda3/envs/cle/share/psi4/basis/aug-cc-pvdz-jkfit.gbs 
    atoms 3-6, 12-15 entry H          line    70 file /theoryfs2/ds/csargent/miniconda3/envs/cle/share/psi4/basis/aug-cc-pvdz-jkfit.gbs 
    atoms 7-9, 16-18 entry C          line   154 file /theoryfs2/ds/csargent/miniconda3/envs/cle/share/psi4/basis/aug-cc-pvdz-jkfit.gbs 

  ==> Integral Setup <==

  ==> DiskDFJK: Density-Fitted J/K Matrices <==

    J tasked:                  Yes
    K tasked:                  Yes
    wK tasked:                  No
    OpenMP threads:              6
    Integrals threads:           6
    Memory [MiB]:             5006
    Algorithm:                Core
    Integral Cache:           SAVE
    Schwarz Cutoff:          1E-12
    Fitting Condition:       1E-10

   => Auxiliary Basis Set <=

  Basis Set: (AUG-CC-PVDZ AUX)
    Blend: AUG-CC-PVDZ-JKFIT
    Number of shells: 376
    Number of basis functions: 1116
    Number of Cartesian functions: 1290
    Spherical Harmonics?: true
    Max angular momentum: 3

  Minimum eigenvalue in the overlap matrix is 3.0324469566E-05.
  Reciprocal condition number of the overlap matrix is 2.4867199593E-06.
    Using symmetric orthogonalization.

  ==> Pre-Iterations <==

  SCF Guess: Superposition of Atomic Densities via on-the-fly atomic UHF (no occupation information).

   -------------------------
    Irrep   Nso     Nmo    
   -------------------------
     A        302     302 
   -------------------------
    Total     302     302
   -------------------------

  ==> Iterations <==

                           Total Energy        Delta E     RMS |[F,P]|

   @DF-RHF iter SAD:  -449.44445655674326   -4.49444e+02   0.00000e+00 
   @DF-RHF iter   1:  -449.27102557339191    1.73431e-01   2.12823e-03 DIIS
   @DF-RHF iter   2:  -449.47974213775575   -2.08717e-01   9.74027e-04 DIIS
   @DF-RHF iter   3:  -449.52159230286543   -4.18502e-02   2.10324e-04 DIIS
   @DF-RHF iter   4:  -449.52436276553641   -2.77046e-03   8.57095e-05 DIIS
   @DF-RHF iter   5:  -449.52472028108485   -3.57516e-04   1.69532e-05 DIIS
   @DF-RHF iter   6:  -449.52475417778811   -3.38967e-05   7.02448e-06 DIIS
   @DF-RHF iter   7:  -449.52476207947404   -7.90169e-06   3.10005e-06 DIIS
   @DF-RHF iter   8:  -449.52476360399430   -1.52452e-06   1.43857e-06 DIIS
   @DF-RHF iter   9:  -449.52476394004856   -3.36054e-07   4.01548e-07 DIIS
   @DF-RHF iter  10:  -449.52476395777444   -1.77259e-08   1.20961e-07 DIIS
   @DF-RHF iter  11:  -449.52476395915602   -1.38158e-09   2.82568e-08 DIIS
   @DF-RHF iter  12:  -449.52476395924788   -9.18590e-11   8.23041e-09 DIIS
   @DF-RHF iter  13:  -449.52476395925669   -8.81073e-12   4.01537e-09 DIIS
   @DF-RHF iter  14:  -449.52476395925800   -1.30740e-12   1.38542e-09 DIIS
   @DF-RHF iter  15:  -449.52476395925896   -9.66338e-13   5.89755e-10 DIIS
   @DF-RHF iter  16:  -449.52476395925919   -2.27374e-13   1.79244e-10 DIIS
   @DF-RHF iter  17:  -449.52476395925885    3.41061e-13   6.42699e-11 DIIS
  Energy and wave function converged.


  ==> Post-Iterations <==

    Orbital Energies [Eh]
    ---------------------

    Doubly Occupied:                                                      

       1A    -15.636458     2A    -15.636432     3A    -15.592545  
       4A    -15.592485     5A    -11.280139     6A    -11.280111  
       7A    -11.238015     8A    -11.237949     9A    -11.210137  
      10A    -11.210092    11A     -1.387199    12A     -1.387156  
      13A     -1.122134    14A     -1.122089    15A     -1.067140  
      16A     -1.067132    17A     -0.873003    18A     -0.872955  
      19A     -0.837299    20A     -0.837238    21A     -0.757539  
      22A     -0.757482    23A     -0.645982    24A     -0.645943  
      25A     -0.621074    26A     -0.621029    27A     -0.609375  
      28A     -0.609375    29A     -0.584163    30A     -0.584110  
      31A     -0.461632    32A     -0.461604    33A     -0.370953  
      34A     -0.370909    35A     -0.346289    36A     -0.346258  

    Virtual:                                                              

      37A      0.030481    38A      0.030509    39A      0.042113  
      40A      0.042171    41A      0.048923    42A      0.048958  
      43A      0.063275    44A      0.063316    45A      0.100737  
      46A      0.100774    47A      0.103802    48A      0.103832  
      49A      0.116957    50A      0.117012    51A      0.126035  
      52A      0.126069    53A      0.132814    54A      0.132853  
      55A      0.138143    56A      0.138177    57A      0.141218  
      58A      0.141263    59A      0.156610    60A      0.156656  
      61A      0.164338    62A      0.164384    63A      0.170843  
      64A      0.170885    65A      0.178177    66A      0.178218  
      67A      0.195813    68A      0.195840    69A      0.204563  
      70A      0.204615    71A      0.205944    72A      0.205984  
      73A      0.239999    74A      0.240042    75A      0.243391  
      76A      0.243425    77A      0.244745    78A      0.244782  
      79A      0.270907    80A      0.270958    81A      0.278837  
      82A      0.278866    83A      0.300811    84A      0.300865  
      85A      0.324906    86A      0.324928    87A      0.352113  
      88A      0.352145    89A      0.355114    90A      0.355156  
      91A      0.374653    92A      0.374696    93A      0.395804  
      94A      0.395838    95A      0.402497    96A      0.402537  
      97A      0.414730    98A      0.414786    99A      0.431895  
     100A      0.431934   101A      0.443171   102A      0.443206  
     103A      0.453163   104A      0.453219   105A      0.459576  
     106A      0.459620   107A      0.478411   108A      0.478451  
     109A      0.498307   110A      0.498352   111A      0.508457  
     112A      0.508500   113A      0.521663   114A      0.521734  
     115A      0.541321   116A      0.541368   117A      0.574192  
     118A      0.574226   119A      0.586072   120A      0.586116  
     121A      0.590291   122A      0.590339   123A      0.602166  
     124A      0.602218   125A      0.620711   126A      0.620769  
     127A      0.645867   128A      0.645908   129A      0.655042  
     130A      0.655089   131A      0.675920   132A      0.675967  
     133A      0.697803   134A      0.697839   135A      0.700150  
     136A      0.700181   137A      0.721431   138A      0.721449  
     139A      0.724863   140A      0.724909   141A      0.747470  
     142A      0.747517   143A      0.758353   144A      0.758443  
     145A      0.773080   146A      0.773101   147A      0.781245  
     148A      0.781277   149A      0.828279   150A      0.828326  
     151A      0.837987   152A      0.838034   153A      0.848153  
     154A      0.848178   155A      0.881155   156A      0.881192  
     157A      0.888518   158A      0.888552   159A      0.906714  
     160A      0.906753   161A      0.924579   162A      0.924604  
     163A      0.942346   164A      0.942401   165A      0.977984  
     166A      0.978008   167A      0.984612   168A      0.984651  
     169A      1.010927   170A      1.010986   171A      1.046380  
     172A      1.046433   173A      1.066260   174A      1.066296  
     175A      1.100616   176A      1.100653   177A      1.127818  
     178A      1.127899   179A      1.133953   180A      1.133959  
     181A      1.149990   182A      1.150034   183A      1.174931  
     184A      1.174970   185A      1.220317   186A      1.220346  
     187A      1.269316   188A      1.269371   189A      1.303111  
     190A      1.303197   191A      1.311166   192A      1.311236  
     193A      1.365574   194A      1.365608   195A      1.400803  
     196A      1.400837   197A      1.474461   198A      1.474511  
     199A      1.511791   200A      1.511822   201A      1.525889  
     202A      1.525934   203A      1.560753   204A      1.560777  
     205A      1.590634   206A      1.590679   207A      1.608428  
     208A      1.608477   209A      1.637191   210A      1.637230  
     211A      1.669228   212A      1.669288   213A      1.703392  
     214A      1.703433   215A      1.723712   216A      1.723758  
     217A      1.748980   218A      1.749053   219A      1.764133  
     220A      1.764164   221A      1.804813   222A      1.804829  
     223A      1.875379   224A      1.875386   225A      1.932153  
     226A      1.932207   227A      1.943311   228A      1.943355  
     229A      1.987830   230A      1.987942   231A      2.021210  
     232A      2.021256   233A      2.057371   234A      2.057460  
     235A      2.088597   236A      2.088605   237A      2.144450  
     238A      2.144509   239A      2.189761   240A      2.189792  
     241A      2.200588   242A      2.200628   243A      2.230219  
     244A      2.230254   245A      2.275588   246A      2.275635  
     247A      2.307401   248A      2.307435   249A      2.360447  
     250A      2.360479   251A      2.388893   252A      2.388921  
     253A      2.393558   254A      2.393587   255A      2.435003  
     256A      2.435014   257A      2.464732   258A      2.464744  
     259A      2.531560   260A      2.531586   261A      2.569995  
     262A      2.569997   263A      2.584480   264A      2.584620  
     265A      2.642723   266A      2.642758   267A      2.732786  
     268A      2.732806   269A      2.826604   270A      2.826612  
     271A      2.834511   272A      2.834516   273A      2.901346  
     274A      2.901353   275A      2.918362   276A      2.918362  
     277A      2.998917   278A      2.998993   279A      3.055086  
     280A      3.055110   281A      3.092127   282A      3.092246  
     283A      3.122493   284A      3.122503   285A      3.188698  
     286A      3.188818   287A      3.221769   288A      3.221829  
     289A      3.297635   290A      3.297721   291A      3.379989  
     292A      3.380012   293A      3.520493   294A      3.520567  
     295A      3.686096   296A      3.686325   297A      3.889054  
     298A      3.889094   299A      4.209120   300A      4.209197  
     301A      4.462829   302A      4.462993  

    Final Occupation by Irrep:
              A 
    DOCC [    36 ]

  @DF-RHF Final Energy:  -449.52476395925885

   => Energetics <=

    Nuclear Repulsion Energy =            366.4135481435183124
    One-Electron Energy =               -1333.3137746779223107
    Two-Electron Energy =                 517.3754625751452068
    Total Energy =                       -449.5247639592588484

Computation Completed


Properties will be evaluated at   0.000000,   0.000000,   0.000000 [a0]

Properties computed using the SCF density matrix

  Nuclear Dipole Moment: [e a0]
     X: -1067.5761      Y:  -416.5873      Z:    11.5589

  Electronic Dipole Moment: [e a0]
     X:  1067.4645      Y:   417.7821      Z:   -10.2769

  Dipole Moment: [e a0]
     X:    -0.1116      Y:     1.1949      Z:     1.2820     Total:     1.7560

  Dipole Moment: [D]
     X:    -0.2837      Y:     3.0371      Z:     3.2584     Total:     4.4634


*** tstop() called on ds1 at Mon Oct  4 15:53:16 2021
Module time:
	user time   =      22.35 seconds =       0.37 minutes
	system time =       0.63 seconds =       0.01 minutes
	total time  =          5 seconds =       0.08 minutes
Total time:
	user time   =      22.35 seconds =       0.37 minutes
	system time =       0.63 seconds =       0.01 minutes
	total time  =          5 seconds =       0.08 minutes

  //>>>>>>>>>>>>>>>>>>>>>>>>>>>>>>>>>>>//
  //            Monomer A HF           //
  //<<<<<<<<<<<<<<<<<<<<<<<<<<<<<<<<<<<//


*** tstart() called on ds1
*** at Mon Oct  4 15:53:16 2021

   => Loading Basis Set <=

    Name: AUG-CC-PVDZ
    Role: ORBITAL
    Keyword: BASIS
    atoms 1-2, 10-11 entry N          line   218 file /theoryfs2/ds/csargent/miniconda3/envs/cle/share/psi4/basis/aug-cc-pvdz.gbs 
    atoms 3-6, 12-15 entry H          line    40 file /theoryfs2/ds/csargent/miniconda3/envs/cle/share/psi4/basis/aug-cc-pvdz.gbs 
    atoms 7-9, 16-18 entry C          line   182 file /theoryfs2/ds/csargent/miniconda3/envs/cle/share/psi4/basis/aug-cc-pvdz.gbs 


         ---------------------------------------------------------
                                   SCF
               by Justin Turney, Rob Parrish, Andy Simmonett
                          and Daniel G. A. Smith
                              RHF Reference
                        6 Threads,   6675 MiB Core
         ---------------------------------------------------------

  ==> Geometry <==

    Molecular point group: c1
    Full point group: C1

    Geometry (in Bohr), charge = 0, multiplicity = 1:

       Center              X                  Y                   Z               Mass       
    ------------   -----------------  -----------------  -----------------  -----------------
         N            6.279812100000    -4.253033720000     0.193138650000    14.003074004430
         N            6.068707770000    -2.281256970000     1.805443170000    14.003074004430
         H            3.668711560000    -5.646289410000    -1.966840010000     1.007825032230
         H            0.690345210000    -2.375456940000    -0.428642360000     1.007825032230
         H            3.359174420000     0.176506010000     3.092650170000     1.007825032230
         H            7.352667820000    -1.994613110000     2.906807020000     1.007825032230
         C            3.779525860000    -1.215084530000     1.768581720000    12.000000000000
         C            2.382429980000    -2.555055380000     0.046076810000    12.000000000000
         C            4.017714680000    -4.384104900000    -0.887618630000    12.000000000000
      Gh(N)         -35.894004060000    -9.493026270000    -1.541781400000    14.003074004430
      Gh(N)         -35.775141800000    -7.455119230000    -0.004607680000    14.003074004430
      Gh(H)         -33.220841330000   -11.893936230000    -2.259811750000     1.007825032230
      Gh(H)         -30.326204770000    -9.451397490000     0.495325750000     1.007825032230
      Gh(H)         -33.262628840000    -5.738348480000     2.399962060000     1.007825032230
      Gh(H)         -37.237550020000    -6.645142170000     0.381157650000     1.007825032230
      Gh(C)         -33.492305400000    -7.124943560000     1.024441170000    12.000000000000
      Gh(C)         -32.009312960000    -9.054615780000     0.134518700000    12.000000000000
      Gh(C)         -33.570618300000   -10.439783590000    -1.457179250000    12.000000000000

  Running in c1 symmetry.

  Rotational constants: A =      0.03996  B =      0.00070  C =      0.00069 [cm^-1]
  Rotational constants: A =   1198.07975  B =     20.93735  C =     20.66412 [MHz]
  Nuclear repulsion =  166.624056450327203

  Charge       = 0
  Multiplicity = 1
  Electrons    = 36
  Nalpha       = 18
  Nbeta        = 18

  ==> Algorithm <==

  SCF Algorithm Type is DF.
  DIIS enabled.
  MOM disabled.
  Fractional occupation disabled.
  Guess Type is SAD.
  Energy threshold   = 1.00e-10
  Density threshold  = 1.00e-10
  Integral threshold = 1.00e-12

  ==> Primary Basis <==

  Basis Set: AUG-CC-PVDZ
    Blend: AUG-CC-PVDZ
    Number of shells: 130
    Number of basis functions: 302
    Number of Cartesian functions: 322
    Spherical Harmonics?: true
    Max angular momentum: 2

   => Loading Basis Set <=

    Name: (AUG-CC-PVDZ AUX)
    Role: JKFIT
    Keyword: DF_BASIS_SCF
    atoms 1-2, 10-11 entry N          line   212 file /theoryfs2/ds/csargent/miniconda3/envs/cle/share/psi4/basis/aug-cc-pvdz-jkfit.gbs 
    atoms 3-6, 12-15 entry H          line    70 file /theoryfs2/ds/csargent/miniconda3/envs/cle/share/psi4/basis/aug-cc-pvdz-jkfit.gbs 
    atoms 7-9, 16-18 entry C          line   154 file /theoryfs2/ds/csargent/miniconda3/envs/cle/share/psi4/basis/aug-cc-pvdz-jkfit.gbs 

  ==> Integral Setup <==

  ==> DiskDFJK: Density-Fitted J/K Matrices <==

    J tasked:                  Yes
    K tasked:                  Yes
    wK tasked:                  No
    OpenMP threads:              6
    Integrals threads:           6
    Memory [MiB]:             5006
    Algorithm:                Core
    Integral Cache:           LOAD
    Schwarz Cutoff:          1E-12
    Fitting Condition:       1E-10

   => Auxiliary Basis Set <=

  Basis Set: (AUG-CC-PVDZ AUX)
    Blend: AUG-CC-PVDZ-JKFIT
    Number of shells: 376
    Number of basis functions: 1116
    Number of Cartesian functions: 1290
    Spherical Harmonics?: true
    Max angular momentum: 3

  Minimum eigenvalue in the overlap matrix is 3.0324469566E-05.
  Reciprocal condition number of the overlap matrix is 2.4867199593E-06.
    Using symmetric orthogonalization.

  ==> Pre-Iterations <==

  SCF Guess: Superposition of Atomic Densities via on-the-fly atomic UHF (no occupation information).

   -------------------------
    Irrep   Nso     Nmo    
   -------------------------
     A        302     302 
   -------------------------
    Total     302     302
   -------------------------

  ==> Iterations <==

                           Total Energy        Delta E     RMS |[F,P]|

   @DF-RHF iter SAD:  -224.72194801261838   -2.24722e+02   0.00000e+00 
   @DF-RHF iter   1:  -224.63549169884720    8.64563e-02   1.50472e-03 DIIS
   @DF-RHF iter   2:  -224.73984613136952   -1.04354e-01   6.88462e-04 DIIS
   @DF-RHF iter   3:  -224.76075487024875   -2.09087e-02   1.48626e-04 DIIS
   @DF-RHF iter   4:  -224.76213931400261   -1.38444e-03   6.05310e-05 DIIS
   @DF-RHF iter   5:  -224.76231766875543   -1.78355e-04   1.19893e-05 DIIS
   @DF-RHF iter   6:  -224.76233462622841   -1.69575e-05   4.96772e-06 DIIS
   @DF-RHF iter   7:  -224.76233858226544   -3.95604e-06   2.18806e-06 DIIS
   @DF-RHF iter   8:  -224.76233934300697   -7.60742e-07   1.01700e-06 DIIS
   @DF-RHF iter   9:  -224.76233951064927   -1.67642e-07   2.83302e-07 DIIS
   @DF-RHF iter  10:  -224.76233951947046   -8.82119e-09   8.55547e-08 DIIS
   @DF-RHF iter  11:  -224.76233952015937   -6.88914e-10   1.99714e-08 DIIS
   @DF-RHF iter  12:  -224.76233952020587   -4.64979e-11   5.81092e-09 DIIS
   @DF-RHF iter  13:  -224.76233952020965   -3.78009e-12   2.83097e-09 DIIS
   @DF-RHF iter  14:  -224.76233952021121   -1.56319e-12   9.75191e-10 DIIS
   @DF-RHF iter  15:  -224.76233952021076    4.54747e-13   4.15548e-10 DIIS
   @DF-RHF iter  16:  -224.76233952021119   -4.26326e-13   1.25998e-10 DIIS
   @DF-RHF iter  17:  -224.76233952021082    3.69482e-13   4.47781e-11 DIIS
  Energy and wave function converged.


  ==> Post-Iterations <==

    Orbital Energies [Eh]
    ---------------------

    Doubly Occupied:                                                      

       1A    -15.636223     2A    -15.592313     3A    -11.279894  
       4A    -11.237784     5A    -11.209891     6A     -1.386922  
       7A     -1.121901     8A     -1.066898     9A     -0.872768  
      10A     -0.837061    11A     -0.757292    12A     -0.645746  
      13A     -0.620834    14A     -0.609140    15A     -0.583920  
      16A     -0.461404    17A     -0.370721    18A     -0.346048  

    Virtual:                                                              

      19A      0.022503    20A      0.030764    21A      0.039849  
      22A      0.042368    23A      0.043953    24A      0.049159  
      25A      0.063520    26A      0.065678    27A      0.083804  
      28A      0.090612    29A      0.098779    30A      0.100998  
      31A      0.104029    32A      0.117179    33A      0.118168  
      34A      0.125679    35A      0.126270    36A      0.128037  
      37A      0.133069    38A      0.133194    39A      0.133954  
      40A      0.138403    41A      0.141490    42A      0.156889  
      43A      0.158374    44A      0.164592    45A      0.165763  
      46A      0.171075    47A      0.178408    48A      0.179015  
      49A      0.195351    50A      0.196042    51A      0.201345  
      52A      0.204793    53A      0.206162    54A      0.222804  
      55A      0.224962    56A      0.228112    57A      0.235423  
      58A      0.240236    59A      0.243626    60A      0.244965  
      61A      0.263939    62A      0.270835    63A      0.271127  
      64A      0.279080    65A      0.301010    66A      0.321797  
      67A      0.325148    68A      0.339912    69A      0.352358  
      70A      0.355357    71A      0.366392    72A      0.372742  
      73A      0.374907    74A      0.383565    75A      0.396061  
      76A      0.402741    77A      0.414998    78A      0.427312  
      79A      0.431906    80A      0.432132    81A      0.441006  
      82A      0.442152    83A      0.443385    84A      0.453393  
      85A      0.455858    86A      0.457273    87A      0.459816  
      88A      0.461726    89A      0.478655    90A      0.498543  
      91A      0.508690    92A      0.509563    93A      0.519272  
      94A      0.521917    95A      0.532974    96A      0.537897  
      97A      0.541560    98A      0.559172    99A      0.568669  
     100A      0.571686   101A      0.574432   102A      0.586318  
     103A      0.590538   104A      0.595000   105A      0.602413  
     106A      0.613230   107A      0.620953   108A      0.621115  
     109A      0.633385   110A      0.646110   111A      0.655295  
     112A      0.676161   113A      0.690674   114A      0.698041  
     115A      0.700391   116A      0.707670   117A      0.719301  
     118A      0.721667   119A      0.725115   120A      0.735510  
     121A      0.745235   122A      0.747709   123A      0.758592  
     124A      0.773318   125A      0.781481   126A      0.789580  
     127A      0.797966   128A      0.814295   129A      0.820803  
     130A      0.828504   131A      0.838230   132A      0.848393  
     133A      0.851800   134A      0.854949   135A      0.870862  
     136A      0.880946   137A      0.881395   138A      0.888767  
     139A      0.895554   140A      0.906950   141A      0.916022  
     142A      0.924815   143A      0.942582   144A      0.951994  
     145A      0.978222   146A      0.984850   147A      0.997070  
     148A      1.011149   149A      1.024073   150A      1.030143  
     151A      1.046606   152A      1.051537   153A      1.066503  
     154A      1.070992   155A      1.080899   156A      1.100852  
     157A      1.108126   158A      1.128058   159A      1.134196  
     160A      1.150235   161A      1.158732   162A      1.166249  
     163A      1.175168   164A      1.184914   165A      1.220548  
     166A      1.221687   167A      1.236998   168A      1.267932  
     169A      1.269556   170A      1.293714   171A      1.303342  
     172A      1.311399   173A      1.315110   174A      1.340634  
     175A      1.365807   176A      1.381808   177A      1.401043  
     178A      1.434977   179A      1.444717   180A      1.474691  
     181A      1.493167   182A      1.507037   183A      1.512027  
     184A      1.526129   185A      1.560989   186A      1.590882  
     187A      1.608669   188A      1.637437   189A      1.669472  
     190A      1.676695   191A      1.688871   192A      1.703634  
     193A      1.723950   194A      1.749215   195A      1.764373  
     196A      1.805048   197A      1.875632   198A      1.932390  
     199A      1.943558   200A      1.988067   201A      2.021445  
     202A      2.041034   203A      2.057611   204A      2.088839  
     205A      2.109023   206A      2.134761   207A      2.144687  
     208A      2.168060   209A      2.190005   210A      2.200827  
     211A      2.216579   212A      2.230457   213A      2.233820  
     214A      2.261832   215A      2.275825   216A      2.277701  
     217A      2.289225   218A      2.307640   219A      2.335604  
     220A      2.360716   221A      2.380581   222A      2.389130  
     223A      2.393822   224A      2.394497   225A      2.435246  
     226A      2.443825   227A      2.464967   228A      2.478256  
     229A      2.499897   230A      2.513656   231A      2.531798  
     232A      2.548775   233A      2.570232   234A      2.584716  
     235A      2.631308   236A      2.642961   237A      2.667504  
     238A      2.703005   239A      2.718855   240A      2.733029  
     241A      2.826838   242A      2.827921   243A      2.834751  
     244A      2.869795   245A      2.889988   246A      2.901587  
     247A      2.918598   248A      2.945078   249A      2.999157  
     250A      3.027955   251A      3.055324   252A      3.089731  
     253A      3.092358   254A      3.122730   255A      3.140017  
     256A      3.181869   257A      3.188930   258A      3.222008  
     259A      3.254152   260A      3.289131   261A      3.297865  
     262A      3.355662   263A      3.380235   264A      3.395635  
     265A      3.423401   266A      3.448209   267A      3.487195  
     268A      3.497527   269A      3.520727   270A      3.633641  
     271A      3.666961   272A      3.686563   273A      3.735623  
     274A      3.770135   275A      3.851145   276A      3.889327  
     277A      3.964528   278A      4.035658   279A      4.094771  
     280A      4.209428   281A      4.244076   282A      4.448260  
     283A      4.463235   284A      4.658507   285A      4.708172  
     286A      4.749933   287A      4.810842   288A      4.994855  
     289A      5.076729   290A      5.241243   291A      5.531488  
     292A      5.669048   293A      5.826652   294A      6.107046  
     295A      6.318173   296A      6.707586   297A      6.967521  
     298A     18.111163   299A     18.648058   300A     19.373672  
     301A     25.245473   302A     25.705353  

    Final Occupation by Irrep:
              A 
    DOCC [    18 ]

  @DF-RHF Final Energy:  -224.76233952021082

   => Energetics <=

    Nuclear Repulsion Energy =            166.6240564503272026
    One-Electron Energy =                -633.4992733843507722
    Two-Electron Energy =                 242.1128774138127540
    Total Energy =                       -224.7623395202108156

Computation Completed


Properties will be evaluated at   0.000000,   0.000000,   0.000000 [a0]

Properties computed using the SCF density matrix

  Nuclear Dipole Moment: [e a0]
     X:   162.5886      Y:  -104.5054      Z:    23.1563

  Electronic Dipole Moment: [e a0]
     X:  -162.9913      Y:   105.1370      Z:   -22.5767

  Dipole Moment: [e a0]
     X:    -0.4027      Y:     0.6317      Z:     0.5796     Total:     0.9472

  Dipole Moment: [D]
     X:    -1.0235      Y:     1.6055      Z:     1.4733     Total:     2.4075


*** tstop() called on ds1 at Mon Oct  4 15:53:19 2021
Module time:
	user time   =      15.85 seconds =       0.26 minutes
	system time =       0.31 seconds =       0.01 minutes
	total time  =          3 seconds =       0.05 minutes
Total time:
	user time   =      38.35 seconds =       0.64 minutes
	system time =       0.95 seconds =       0.02 minutes
	total time  =          8 seconds =       0.13 minutes

  //>>>>>>>>>>>>>>>>>>>>>>>>>>>>>>>>>>>//
  //            Monomer B HF           //
  //<<<<<<<<<<<<<<<<<<<<<<<<<<<<<<<<<<<//


*** tstart() called on ds1
*** at Mon Oct  4 15:53:19 2021

   => Loading Basis Set <=

    Name: AUG-CC-PVDZ
    Role: ORBITAL
    Keyword: BASIS
    atoms 1-2, 10-11 entry N          line   218 file /theoryfs2/ds/csargent/miniconda3/envs/cle/share/psi4/basis/aug-cc-pvdz.gbs 
    atoms 3-6, 12-15 entry H          line    40 file /theoryfs2/ds/csargent/miniconda3/envs/cle/share/psi4/basis/aug-cc-pvdz.gbs 
    atoms 7-9, 16-18 entry C          line   182 file /theoryfs2/ds/csargent/miniconda3/envs/cle/share/psi4/basis/aug-cc-pvdz.gbs 


         ---------------------------------------------------------
                                   SCF
               by Justin Turney, Rob Parrish, Andy Simmonett
                          and Daniel G. A. Smith
                              RHF Reference
                        6 Threads,   6675 MiB Core
         ---------------------------------------------------------

  ==> Geometry <==

    Molecular point group: c1
    Full point group: C1

    Geometry (in Bohr), charge = 0, multiplicity = 1:

       Center              X                  Y                   Z               Mass       
    ------------   -----------------  -----------------  -----------------  -----------------
      Gh(N)           6.279812100000    -4.253033720000     0.193138650000    14.003074004430
      Gh(N)           6.068707770000    -2.281256970000     1.805443170000    14.003074004430
      Gh(H)           3.668711560000    -5.646289410000    -1.966840010000     1.007825032230
      Gh(H)           0.690345210000    -2.375456940000    -0.428642360000     1.007825032230
      Gh(H)           3.359174420000     0.176506010000     3.092650170000     1.007825032230
      Gh(H)           7.352667820000    -1.994613110000     2.906807020000     1.007825032230
      Gh(C)           3.779525860000    -1.215084530000     1.768581720000    12.000000000000
      Gh(C)           2.382429980000    -2.555055380000     0.046076810000    12.000000000000
      Gh(C)           4.017714680000    -4.384104900000    -0.887618630000    12.000000000000
         N          -35.894004060000    -9.493026270000    -1.541781400000    14.003074004430
         N          -35.775141800000    -7.455119230000    -0.004607680000    14.003074004430
         H          -33.220841330000   -11.893936230000    -2.259811750000     1.007825032230
         H          -30.326204770000    -9.451397490000     0.495325750000     1.007825032230
         H          -33.262628840000    -5.738348480000     2.399962060000     1.007825032230
         H          -37.237550020000    -6.645142170000     0.381157650000     1.007825032230
         C          -33.492305400000    -7.124943560000     1.024441170000    12.000000000000
         C          -32.009312960000    -9.054615780000     0.134518700000    12.000000000000
         C          -33.570618300000   -10.439783590000    -1.457179250000    12.000000000000

  Running in c1 symmetry.

  Rotational constants: A =      0.03996  B =      0.00070  C =      0.00069 [cm^-1]
  Rotational constants: A =   1198.07975  B =     20.93735  C =     20.66412 [MHz]
  Nuclear repulsion =  166.628602777485611

  Charge       = 0
  Multiplicity = 1
  Electrons    = 36
  Nalpha       = 18
  Nbeta        = 18

  ==> Algorithm <==

  SCF Algorithm Type is DF.
  DIIS enabled.
  MOM disabled.
  Fractional occupation disabled.
  Guess Type is SAD.
  Energy threshold   = 1.00e-10
  Density threshold  = 1.00e-10
  Integral threshold = 1.00e-12

  ==> Primary Basis <==

  Basis Set: AUG-CC-PVDZ
    Blend: AUG-CC-PVDZ
    Number of shells: 130
    Number of basis functions: 302
    Number of Cartesian functions: 322
    Spherical Harmonics?: true
    Max angular momentum: 2

   => Loading Basis Set <=

    Name: (AUG-CC-PVDZ AUX)
    Role: JKFIT
    Keyword: DF_BASIS_SCF
    atoms 1-2, 10-11 entry N          line   212 file /theoryfs2/ds/csargent/miniconda3/envs/cle/share/psi4/basis/aug-cc-pvdz-jkfit.gbs 
    atoms 3-6, 12-15 entry H          line    70 file /theoryfs2/ds/csargent/miniconda3/envs/cle/share/psi4/basis/aug-cc-pvdz-jkfit.gbs 
    atoms 7-9, 16-18 entry C          line   154 file /theoryfs2/ds/csargent/miniconda3/envs/cle/share/psi4/basis/aug-cc-pvdz-jkfit.gbs 

  ==> Integral Setup <==

  ==> DiskDFJK: Density-Fitted J/K Matrices <==

    J tasked:                  Yes
    K tasked:                  Yes
    wK tasked:                  No
    OpenMP threads:              6
    Integrals threads:           6
    Memory [MiB]:             5006
    Algorithm:                Core
    Integral Cache:           LOAD
    Schwarz Cutoff:          1E-12
    Fitting Condition:       1E-10

   => Auxiliary Basis Set <=

  Basis Set: (AUG-CC-PVDZ AUX)
    Blend: AUG-CC-PVDZ-JKFIT
    Number of shells: 376
    Number of basis functions: 1116
    Number of Cartesian functions: 1290
    Spherical Harmonics?: true
    Max angular momentum: 3

  Minimum eigenvalue in the overlap matrix is 3.0324469566E-05.
  Reciprocal condition number of the overlap matrix is 2.4867199593E-06.
    Using symmetric orthogonalization.

  ==> Pre-Iterations <==

  SCF Guess: Superposition of Atomic Densities via on-the-fly atomic UHF (no occupation information).

   -------------------------
    Irrep   Nso     Nmo    
   -------------------------
     A        302     302 
   -------------------------
    Total     302     302
   -------------------------

  ==> Iterations <==

                           Total Energy        Delta E     RMS |[F,P]|

   @DF-RHF iter SAD:  -224.72250854308734   -2.24723e+02   0.00000e+00 
   @DF-RHF iter   1:  -224.63556595941054    8.69426e-02   1.50490e-03 DIIS
   @DF-RHF iter   2:  -224.73993304692124   -1.04367e-01   6.88620e-04 DIIS
   @DF-RHF iter   3:  -224.76085080049393   -2.09178e-02   1.48614e-04 DIIS
   @DF-RHF iter   4:  -224.76223499915500   -1.38420e-03   6.05151e-05 DIIS
   @DF-RHF iter   5:  -224.76241324365839   -1.78245e-04   1.19848e-05 DIIS
   @DF-RHF iter   6:  -224.76243017680702   -1.69331e-05   4.96323e-06 DIIS
   @DF-RHF iter   7:  -224.76243412465027   -3.94784e-06   2.18627e-06 DIIS
   @DF-RHF iter   8:  -224.76243488418942   -7.59539e-07   1.01631e-06 DIIS
   @DF-RHF iter   9:  -224.76243505169401   -1.67505e-07   2.83280e-07 DIIS
   @DF-RHF iter  10:  -224.76243506051159   -8.81758e-09   8.55270e-08 DIIS
   @DF-RHF iter  11:  -224.76243506120082   -6.89226e-10   1.99678e-08 DIIS
   @DF-RHF iter  12:  -224.76243506124729   -4.64695e-11   5.80974e-09 DIIS
   @DF-RHF iter  13:  -224.76243506125132   -4.03588e-12   2.83583e-09 DIIS
   @DF-RHF iter  14:  -224.76243506125229   -9.66338e-13   9.79833e-10 DIIS
   @DF-RHF iter  15:  -224.76243506125257   -2.84217e-13   4.16538e-10 DIIS
   @DF-RHF iter  16:  -224.76243506125223    3.41061e-13   1.25808e-10 DIIS
   @DF-RHF iter  17:  -224.76243506125226   -2.84217e-14   4.47601e-11 DIIS
  Energy and wave function converged.


  ==> Post-Iterations <==

    Orbital Energies [Eh]
    ---------------------

    Doubly Occupied:                                                      

       1A    -15.636233     2A    -15.592291     3A    -11.279903  
       4A    -11.237759     5A    -11.209884     6A     -1.387001  
       7A     -1.121894     8A     -1.066928     9A     -0.872759  
      10A     -0.837039    11A     -0.757272    12A     -0.645745  
      13A     -0.620828    14A     -0.609177    15A     -0.583905  
      16A     -0.461413    17A     -0.370715    18A     -0.346055  

    Virtual:                                                              

      19A      0.022462    20A      0.030764    21A      0.039811  
      22A      0.042369    23A      0.043910    24A      0.049158  
      25A      0.063519    26A      0.065642    27A      0.083764  
      28A      0.090569    29A      0.098745    30A      0.101001  
      31A      0.104028    32A      0.117186    33A      0.118140  
      34A      0.125626    35A      0.126272    36A      0.128000  
      37A      0.133069    38A      0.133161    39A      0.133900  
      40A      0.138399    41A      0.141487    42A      0.156889  
      43A      0.158331    44A      0.164594    45A      0.165730  
      46A      0.171081    47A      0.178407    48A      0.178983  
      49A      0.195309    50A      0.196040    51A      0.201312  
      52A      0.204806    53A      0.206166    54A      0.222766  
      55A      0.224922    56A      0.228072    57A      0.235385  
      58A      0.240240    59A      0.243627    60A      0.244965  
      61A      0.263897    62A      0.270800    63A      0.271138  
      64A      0.279081    65A      0.301024    66A      0.321753  
      67A      0.325138    68A      0.339875    69A      0.352355  
      70A      0.355359    71A      0.366346    72A      0.372702  
      73A      0.374909    74A      0.383525    75A      0.396062  
      76A      0.402744    77A      0.415005    78A      0.427278  
      79A      0.431859    80A      0.432131    81A      0.440964  
      82A      0.442112    83A      0.443379    84A      0.453414  
      85A      0.455812    86A      0.457233    87A      0.459816  
      88A      0.461697    89A      0.478656    90A      0.498544  
      91A      0.508693    92A      0.509524    93A      0.519233  
      94A      0.521953    95A      0.532942    96A      0.537856  
      97A      0.541569    98A      0.559130    99A      0.568634  
     100A      0.571641   101A      0.574428   102A      0.586322  
     103A      0.590547   104A      0.594976   105A      0.602431  
     106A      0.613187   107A      0.620974   108A      0.621069  
     109A      0.633342   110A      0.646111   111A      0.655304  
     112A      0.676168   113A      0.690646   114A      0.698039  
     115A      0.700384   116A      0.707641   117A      0.719255  
     118A      0.721648   119A      0.725121   120A      0.735470  
     121A      0.745190   122A      0.747717   123A      0.758643  
     124A      0.773300   125A      0.781476   126A      0.789535  
     127A      0.797927   128A      0.814262   129A      0.820761  
     130A      0.828513   131A      0.838238   132A      0.848382  
     133A      0.851751   134A      0.854911   135A      0.870836  
     136A      0.880891   137A      0.881396   138A      0.888762  
     139A      0.895510   140A      0.906950   141A      0.915980  
     142A      0.924803   143A      0.942599   144A      0.951940  
     145A      0.978204   146A      0.984853   147A      0.997025  
     148A      1.011170   149A      1.024039   150A      1.030113  
     151A      1.046624   152A      1.051510   153A      1.066503  
     154A      1.070960   155A      1.080859   156A      1.100853  
     157A      1.108066   158A      1.128099   159A      1.134152  
     160A      1.150240   161A      1.158688   162A      1.166199  
     163A      1.175167   164A      1.184872   165A      1.220538  
     166A      1.221623   167A      1.236933   168A      1.267905  
     169A      1.269573   170A      1.293655   171A      1.303390  
     172A      1.311431   173A      1.315059   174A      1.340602  
     175A      1.365802   176A      1.381760   177A      1.401039  
     178A      1.434923   179A      1.444643   180A      1.474706  
     181A      1.493143   182A      1.506952   183A      1.512021  
     184A      1.526136   185A      1.560976   186A      1.590889  
     187A      1.608679   188A      1.637435   189A      1.669494  
     190A      1.676649   191A      1.688835   192A      1.703636  
     193A      1.723957   194A      1.749249   195A      1.764367  
     196A      1.805025   197A      1.875589   198A      1.932406  
     199A      1.943562   200A      1.988139   201A      2.021453  
     202A      2.040995   203A      2.057662   204A      2.088810  
     205A      2.108981   206A      2.134765   207A      2.144708  
     208A      2.168022   209A      2.189999   210A      2.200828  
     211A      2.216565   212A      2.230454   213A      2.233782  
     214A      2.261791   215A      2.275832   216A      2.277692  
     217A      2.289189   218A      2.307637   219A      2.335630  
     220A      2.360646   221A      2.380522   222A      2.389121  
     223A      2.393758   224A      2.394458   225A      2.435199  
     226A      2.443798   227A      2.464942   228A      2.478247  
     229A      2.499817   230A      2.513561   231A      2.531785  
     232A      2.548734   233A      2.570195   234A      2.584820  
     235A      2.631272   236A      2.642959   237A      2.667452  
     238A      2.702948   239A      2.718816   240A      2.733013  
     241A      2.826807   242A      2.827848   243A      2.834707  
     244A      2.869734   245A      2.889956   246A      2.901543  
     247A      2.918563   248A      2.945092   249A      2.999195  
     250A      3.027998   251A      3.055311   252A      3.089770  
     253A      3.092440   254A      3.122703   255A      3.139965  
     256A      3.181916   257A      3.189011   258A      3.222030  
     259A      3.254087   260A      3.289152   261A      3.297913  
     262A      3.355717   263A      3.380219   264A      3.395557  
     265A      3.423434   266A      3.448248   267A      3.487108  
     268A      3.497440   269A      3.520764   270A      3.633533  
     271A      3.666898   272A      3.686295   273A      3.735565  
     274A      3.770038   275A      3.851108   276A      3.889250  
     277A      3.964337   278A      4.035476   279A      4.094709  
     280A      4.209312   281A      4.244035   282A      4.448389  
     283A      4.463032   284A      4.658394   285A      4.707997  
     286A      4.749876   287A      4.810737   288A      4.994820  
     289A      5.076765   290A      5.241400   291A      5.531205  
     292A      5.668918   293A      5.826796   294A      6.106663  
     295A      6.318264   296A      6.708343   297A      6.967834  
     298A     18.111130   299A     18.647813   300A     19.373527  
     301A     25.245531   302A     25.704919  

    Final Occupation by Irrep:
              A 
    DOCC [    18 ]

  @DF-RHF Final Energy:  -224.76243506125226

   => Energetics <=

    Nuclear Repulsion Energy =            166.6286027774856109
    One-Electron Energy =                -633.5084733410908484
    Two-Electron Energy =                 242.1174355023529472
    Total Energy =                       -224.7624350612522619

Computation Completed


Properties will be evaluated at   0.000000,   0.000000,   0.000000 [a0]

Properties computed using the SCF density matrix

  Nuclear Dipole Moment: [e a0]
     X: -1230.1647      Y:  -312.0819      Z:   -11.5974

  Electronic Dipole Moment: [e a0]
     X:  1230.4556      Y:   312.6459      Z:    12.3005

  Dipole Moment: [e a0]
     X:     0.2909      Y:     0.5640      Z:     0.7031     Total:     0.9472

  Dipole Moment: [D]
     X:     0.7394      Y:     1.4336      Z:     1.7871     Total:     2.4074


*** tstop() called on ds1 at Mon Oct  4 15:53:23 2021
Module time:
	user time   =      15.73 seconds =       0.26 minutes
	system time =       0.33 seconds =       0.01 minutes
	total time  =          4 seconds =       0.07 minutes
Total time:
	user time   =      54.23 seconds =       0.90 minutes
	system time =       1.28 seconds =       0.02 minutes
	total time  =         12 seconds =       0.20 minutes
  Constructing Basis Sets for SAPT...

   => Loading Basis Set <=

    Name: (AUG-CC-PVDZ AUX)
    Role: RIFIT
    Keyword: DF_BASIS_SAPT
    atoms 1-2, 10-11 entry N          line   158 file /theoryfs2/ds/csargent/miniconda3/envs/cle/share/psi4/basis/aug-cc-pvdz-ri.gbs 
    atoms 3-6, 12-15 entry H          line    30 file /theoryfs2/ds/csargent/miniconda3/envs/cle/share/psi4/basis/aug-cc-pvdz-ri.gbs 
    atoms 7-9, 16-18 entry C          line   112 file /theoryfs2/ds/csargent/miniconda3/envs/cle/share/psi4/basis/aug-cc-pvdz-ri.gbs 


  //>>>>>>>>>>>>>>>>>>>>>>>>>>>>>>>>>>>//
  //               SAPT0               //
  //<<<<<<<<<<<<<<<<<<<<<<<<<<<<<<<<<<<//


*** tstart() called on ds1
*** at Mon Oct  4 15:53:23 2021

        SAPT0  
    Ed Hohenstein
     6 June 2009

      Orbital Information
  --------------------------
    NSO        =       302
    NMO        =       302
    NRI        =       904
    NOCC A     =        18
    NOCC B     =        18
    FOCC A     =         5
    FOCC B     =         5
    NVIR A     =       284
    NVIR B     =       284

    Elst10,r            =     0.000010553005 [Eh]
    Exch10              =     0.000000000000 [Eh]
    Exch10 (S^2)        =     0.000000000000 [Eh]

    Iter     Energy [mEh]          dE [mEh]         Residual      Time [s]
       1      -0.00000623       0.000006231       0.026439186             0
       2      -0.00000576      -0.000000476       0.006707707             0
       3      -0.00000627       0.000000511       0.002924764             0
       4      -0.00000638       0.000000118       0.000708713             1
       5      -0.00000637      -0.000000014       0.000432855             1
       6      -0.00000636      -0.000000009       0.000161010             1
       7      -0.00000636       0.000000002       0.000066409             1
       8      -0.00000637       0.000000001       0.000023641             1
       9      -0.00000637       0.000000000       0.000006081             1
      10      -0.00000637      -0.000000000       0.000001881             1
      11      -0.00000637      -0.000000000       0.000000544             1

    CHF Iterations converged


    Iter     Energy [mEh]          dE [mEh]         Residual      Time [s]
       1      -0.00000574       0.000005741       0.026279035             1
       2      -0.00000529      -0.000000453       0.006319253             1
       3      -0.00000584       0.000000555       0.002594375             1
       4      -0.00000591       0.000000070       0.000840091             1
       5      -0.00000589      -0.000000018       0.000484683             1
       6      -0.00000589      -0.000000006       0.000188102             1
       7      -0.00000589       0.000000002       0.000066924             1
       8      -0.00000589       0.000000001       0.000021485             1
       9      -0.00000589       0.000000000       0.000005414             2
      10      -0.00000589      -0.000000000       0.000001516             2
      11      -0.00000589      -0.000000000       0.000000412             2

    CHF Iterations converged

    Ind20,r (A<-B)      =    -0.000000006365 [Eh]
    Ind20,r (B<-A)      =    -0.000000005891 [Eh]
    Ind20,r             =    -0.000000012256 [Eh]
    Exch-Ind20,r (A<-B) =     0.000000000000 [Eh]
    Exch-Ind20,r (B<-A) =     0.000000000000 [Eh]
    Exch-Ind20,r        =     0.000000000000 [Eh]
    Disp20              =    -0.000000363443 [Eh]
    Disp20 (SS)         =    -0.000000181722 [Eh]
    Disp20 (OS)         =    -0.000000181722 [Eh]
    Exch-Disp20         =     0.000000000000 [Eh]
    Exch-Disp20 (SS)    =     0.000000000000 [Eh]
    Exch-Disp20 (OS)    =     0.000000000000 [Eh]

    SAPT Results 
  --------------------------------------------------------------------------------------------------------
    Electrostatics                  0.01055300 [mEh]       0.00662211 [kcal/mol]       0.02770691 [kJ/mol]
      Elst10,r                      0.01055300 [mEh]       0.00662211 [kcal/mol]       0.02770691 [kJ/mol]

    Exchange                        0.00000000 [mEh]       0.00000000 [kcal/mol]       0.00000000 [kJ/mol]
      Exch10                        0.00000000 [mEh]       0.00000000 [kcal/mol]       0.00000000 [kJ/mol]
      Exch10(S^2)                   0.00000000 [mEh]       0.00000000 [kcal/mol]       0.00000000 [kJ/mol]

    Induction                       0.00006920 [mEh]       0.00004342 [kcal/mol]       0.00018168 [kJ/mol]
      Ind20,r                      -0.00001226 [mEh]      -0.00000769 [kcal/mol]      -0.00003218 [kJ/mol]
      Exch-Ind20,r                  0.00000000 [mEh]       0.00000000 [kcal/mol]       0.00000000 [kJ/mol]
      delta HF,r (2)                0.00008146 [mEh]       0.00005111 [kcal/mol]       0.00021386 [kJ/mol]

    Dispersion                     -0.00036344 [mEh]      -0.00022806 [kcal/mol]      -0.00095422 [kJ/mol]
      Disp20                       -0.00036344 [mEh]      -0.00022806 [kcal/mol]      -0.00095422 [kJ/mol]
      Exch-Disp20                   0.00000000 [mEh]       0.00000000 [kcal/mol]       0.00000000 [kJ/mol]
      Disp20 (SS)                  -0.00018172 [mEh]      -0.00011403 [kcal/mol]      -0.00047711 [kJ/mol]
      Disp20 (OS)                  -0.00018172 [mEh]      -0.00011403 [kcal/mol]      -0.00047711 [kJ/mol]
      Exch-Disp20 (SS)              0.00000000 [mEh]       0.00000000 [kcal/mol]       0.00000000 [kJ/mol]
      Exch-Disp20 (OS)              0.00000000 [mEh]       0.00000000 [kcal/mol]       0.00000000 [kJ/mol]

  Total HF                          0.01062220 [mEh]       0.00666553 [kcal/mol]       0.02788859 [kJ/mol]
  Total SAPT0                       0.01025876 [mEh]       0.00643747 [kcal/mol]       0.02693437 [kJ/mol]

  Special recipe for scaled SAPT0 (see Manual):
    Electrostatics sSAPT0           0.01055300 [mEh]       0.00662211 [kcal/mol]       0.02770691 [kJ/mol]
    Exchange sSAPT0                 0.00000000 [mEh]       0.00000000 [kcal/mol]       0.00000000 [kJ/mol]
    Induction sSAPT0                0.00006920 [mEh]       0.00004342 [kcal/mol]       0.00018168 [kJ/mol]
    Dispersion sSAPT0              -0.00036344 [mEh]      -0.00022806 [kcal/mol]      -0.00095422 [kJ/mol]
  Total sSAPT0                      0.01025876 [mEh]       0.00643747 [kcal/mol]       0.02693437 [kJ/mol]
  --------------------------------------------------------------------------------------------------------

*** tstop() called on ds1 at Mon Oct  4 15:53:32 2021
Module time:
	user time   =      44.35 seconds =       0.74 minutes
	system time =       3.78 seconds =       0.06 minutes
	total time  =          9 seconds =       0.15 minutes
Total time:
	user time   =      99.34 seconds =       1.66 minutes
	system time =       5.09 seconds =       0.08 minutes
	total time  =         21 seconds =       0.35 minutes


Warning! sapt0 does not have an associated derived wavefunction.The returned wavefunction is the dimer SCF wavefunction.


    Psi4 stopped on: Monday, 04 October 2021 03:53PM
    Psi4 wall time for execution: 0:00:21.35

*** Psi4 exiting successfully. Buy a developer a beer!
