
    -----------------------------------------------------------------------
          Psi4: An Open-Source Ab Initio Electronic Structure Package
                               Psi4 1.4rc3 

                         Git: Rev {HEAD} 080dba6 


    D. G. A. Smith, L. A. Burns, A. C. Simmonett, R. M. Parrish,
    M. C. Schieber, R. Galvelis, P. Kraus, H. Kruse, R. Di Remigio,
    A. Alenaizan, A. M. James, S. Lehtola, J. P. Misiewicz, M. Scheurer,
    R. A. Shaw, J. B. Schriber, Y. Xie, Z. L. Glick, D. A. Sirianni,
    J. S. O'Brien, J. M. Waldrop, A. Kumar, E. G. Hohenstein,
    B. P. Pritchard, B. R. Brooks, H. F. Schaefer III, A. Yu. Sokolov,
    K. Patkowski, A. E. DePrince III, U. Bozkaya, R. A. King,
    F. A. Evangelista, J. M. Turney, T. D. Crawford, C. D. Sherrill,
    J. Chem. Phys. 152(18) 184108 (2020). https://doi.org/10.1063/5.0006002

                            Additional Code Authors
    E. T. Seidl, C. L. Janssen, E. F. Valeev, M. L. Leininger,
    J. F. Gonthier, R. M. Richard, H. R. McAlexander, M. Saitow, X. Wang,
    P. Verma, and M. H. Lechner

             Previous Authors, Complete List of Code Contributors,
                       and Citations for Specific Modules
    https://github.com/psi4/psi4/blob/master/codemeta.json
    https://github.com/psi4/psi4/graphs/contributors
    http://psicode.org/psi4manual/master/introduction.html#citing-psifour

    -----------------------------------------------------------------------


    Psi4 started on: Monday, 04 October 2021 03:40PM

    Process ID: 13558
    Host:       ds1
    PSIDATADIR: /theoryfs2/ds/csargent/miniconda3/envs/cle/share/psi4
    Memory:     500.0 MiB
    Threads:    6
    
  ==> Input File <==

--------------------------------------------------------------------------
# PSI4 file produced by CrystaLattE

# Generated from:               pyrazole.xyz
# Psithon input for N-mer:      2mer-0+234
# Number of atoms per monomer:  [9, 9]
# Number of replicas:           1
# COM priority:                 3.019241479425e-05
# Minimum COM separations:      16.994 
# Separation priority:          4.389574028275e-05
# Minimum monomer separations:  15.001 
# Cutoff priority:              1.548447565117e-06
# Nuclear repulsion energy:     373.5581502309424

memory 7 GB

molecule Dimer_0_234 {
  N            6.27981210      -4.25303372       0.19313865 
  N            6.06870777      -2.28125697       1.80544317 
  H            3.66871156      -5.64628941      -1.96684001 
  H            0.69034521      -2.37545694      -0.42864236 
  H            3.35917442       0.17650601       3.09265017 
  H            7.35266782      -1.99461311       2.90680702 
  C            3.77952586      -1.21508453       1.76858172 
  C            2.38242998      -2.55505538       0.04607681 
  C            4.01771468      -4.38410490      -0.88761863 
--
  N          -12.67871861     -14.18732502      27.18608831 
  N          -12.55985635     -16.22523205      25.64891459 
  H          -10.00555588     -11.78641505      27.90411866 
  H           -7.11091932     -14.22895380      25.14898116 
  H          -10.04734339     -17.94200281      23.24434485 
  H          -14.02226457     -17.03520911      25.26314926 
  C          -10.27701995     -16.55540772      24.61986574 
  C           -8.79402751     -14.62573551      25.50978821 
  C          -10.35533284     -13.24056769      27.10148616 
units = au
no_com
no_reorient
}

set {
  e_convergence 10
  d_convergence 10
  scf_type df
  mp2_type df
  cc_type df
  freeze_core true
}

energy('sapt0/aug-cc-pvdz')

--------------------------------------------------------------------------

  Memory set to   6.519 GiB by Python driver.

Scratch directory: /scratch/csargent/psi4.7158.66302/

Scratch directory: /scratch/csargent/psi4.7158.66302/

  //>>>>>>>>>>>>>>>>>>>>>>>>>>>>>>>>>>>//
  //              Dimer HF             //
  //<<<<<<<<<<<<<<<<<<<<<<<<<<<<<<<<<<<//


*** tstart() called on ds1
*** at Mon Oct  4 15:40:45 2021

   => Loading Basis Set <=

    Name: AUG-CC-PVDZ
    Role: ORBITAL
    Keyword: BASIS
    atoms 1-2, 10-11 entry N          line   218 file /theoryfs2/ds/csargent/miniconda3/envs/cle/share/psi4/basis/aug-cc-pvdz.gbs 
    atoms 3-6, 12-15 entry H          line    40 file /theoryfs2/ds/csargent/miniconda3/envs/cle/share/psi4/basis/aug-cc-pvdz.gbs 
    atoms 7-9, 16-18 entry C          line   182 file /theoryfs2/ds/csargent/miniconda3/envs/cle/share/psi4/basis/aug-cc-pvdz.gbs 


         ---------------------------------------------------------
                                   SCF
               by Justin Turney, Rob Parrish, Andy Simmonett
                          and Daniel G. A. Smith
                              RHF Reference
                        6 Threads,   6675 MiB Core
         ---------------------------------------------------------

  ==> Geometry <==

    Molecular point group: c1
    Full point group: C1

    Geometry (in Bohr), charge = 0, multiplicity = 1:

       Center              X                  Y                   Z               Mass       
    ------------   -----------------  -----------------  -----------------  -----------------
         N            6.279812100000    -4.253033720000     0.193138650000    14.003074004430
         N            6.068707770000    -2.281256970000     1.805443170000    14.003074004430
         H            3.668711560000    -5.646289410000    -1.966840010000     1.007825032230
         H            0.690345210000    -2.375456940000    -0.428642360000     1.007825032230
         H            3.359174420000     0.176506010000     3.092650170000     1.007825032230
         H            7.352667820000    -1.994613110000     2.906807020000     1.007825032230
         C            3.779525860000    -1.215084530000     1.768581720000    12.000000000000
         C            2.382429980000    -2.555055380000     0.046076810000    12.000000000000
         C            4.017714680000    -4.384104900000    -0.887618630000    12.000000000000
         N          -12.678718610000   -14.187325020000    27.186088310000    14.003074004430
         N          -12.559856350000   -16.225232050000    25.648914590000    14.003074004430
         H          -10.005555880000   -11.786415050000    27.904118660000     1.007825032230
         H           -7.110919320000   -14.228953800000    25.148981160000     1.007825032230
         H          -10.047343390000   -17.942002810000    23.244344850000     1.007825032230
         H          -14.022264570000   -17.035209110000    25.263149260000     1.007825032230
         C          -10.277019950000   -16.555407720000    24.619865740000    12.000000000000
         C           -8.794027510000   -14.625735510000    25.509788210000    12.000000000000
         C          -10.355332840000   -13.240567690000    27.101486160000    12.000000000000

  Running in c1 symmetry.

  Rotational constants: A =      0.02247  B =      0.00086  C =      0.00084 [cm^-1]
  Rotational constants: A =    673.57248  B =     25.79813  C =     25.09304 [MHz]
  Nuclear repulsion =  373.558150213227179

  Charge       = 0
  Multiplicity = 1
  Electrons    = 72
  Nalpha       = 36
  Nbeta        = 36

  ==> Algorithm <==

  SCF Algorithm Type is DF.
  DIIS enabled.
  MOM disabled.
  Fractional occupation disabled.
  Guess Type is SAD.
  Energy threshold   = 1.00e-10
  Density threshold  = 1.00e-10
  Integral threshold = 1.00e-12

  ==> Primary Basis <==

  Basis Set: AUG-CC-PVDZ
    Blend: AUG-CC-PVDZ
    Number of shells: 130
    Number of basis functions: 302
    Number of Cartesian functions: 322
    Spherical Harmonics?: true
    Max angular momentum: 2

   => Loading Basis Set <=

    Name: (AUG-CC-PVDZ AUX)
    Role: JKFIT
    Keyword: DF_BASIS_SCF
    atoms 1-2, 10-11 entry N          line   212 file /theoryfs2/ds/csargent/miniconda3/envs/cle/share/psi4/basis/aug-cc-pvdz-jkfit.gbs 
    atoms 3-6, 12-15 entry H          line    70 file /theoryfs2/ds/csargent/miniconda3/envs/cle/share/psi4/basis/aug-cc-pvdz-jkfit.gbs 
    atoms 7-9, 16-18 entry C          line   154 file /theoryfs2/ds/csargent/miniconda3/envs/cle/share/psi4/basis/aug-cc-pvdz-jkfit.gbs 

  ==> Integral Setup <==

  ==> DiskDFJK: Density-Fitted J/K Matrices <==

    J tasked:                  Yes
    K tasked:                  Yes
    wK tasked:                  No
    OpenMP threads:              6
    Integrals threads:           6
    Memory [MiB]:             5006
    Algorithm:                Core
    Integral Cache:           SAVE
    Schwarz Cutoff:          1E-12
    Fitting Condition:       1E-10

   => Auxiliary Basis Set <=

  Basis Set: (AUG-CC-PVDZ AUX)
    Blend: AUG-CC-PVDZ-JKFIT
    Number of shells: 376
    Number of basis functions: 1116
    Number of Cartesian functions: 1290
    Spherical Harmonics?: true
    Max angular momentum: 3

  Minimum eigenvalue in the overlap matrix is 3.0324469127E-05.
  Reciprocal condition number of the overlap matrix is 2.4867199170E-06.
    Using symmetric orthogonalization.

  ==> Pre-Iterations <==

  SCF Guess: Superposition of Atomic Densities via on-the-fly atomic UHF (no occupation information).

   -------------------------
    Irrep   Nso     Nmo    
   -------------------------
     A        302     302 
   -------------------------
    Total     302     302
   -------------------------

  ==> Iterations <==

                           Total Energy        Delta E     RMS |[F,P]|

   @DF-RHF iter SAD:  -449.44445655878098   -4.49444e+02   0.00000e+00 
   @DF-RHF iter   1:  -449.27112681572072    1.73330e-01   2.12790e-03 DIIS
   @DF-RHF iter   2:  -449.47984163566650   -2.08715e-01   9.73237e-04 DIIS
   @DF-RHF iter   3:  -449.52162440791153   -4.17828e-02   2.09965e-04 DIIS
   @DF-RHF iter   4:  -449.52438998707885   -2.76558e-03   8.54287e-05 DIIS
   @DF-RHF iter   5:  -449.52474526839421   -3.55281e-04   1.69576e-05 DIIS
   @DF-RHF iter   6:  -449.52477915110080   -3.38827e-05   7.02160e-06 DIIS
   @DF-RHF iter   7:  -449.52478705435277   -7.90325e-06   3.09428e-06 DIIS
   @DF-RHF iter   8:  -449.52478857393760   -1.51958e-06   1.43742e-06 DIIS
   @DF-RHF iter   9:  -449.52478890919076   -3.35253e-07   4.00048e-07 DIIS
   @DF-RHF iter  10:  -449.52478892679653   -1.76058e-08   1.20865e-07 DIIS
   @DF-RHF iter  11:  -449.52478892817220   -1.37567e-09   2.82348e-08 DIIS
   @DF-RHF iter  12:  -449.52478892826531   -9.31095e-11   8.21078e-09 DIIS
   @DF-RHF iter  13:  -449.52478892827332   -8.01492e-12   4.00483e-09 DIIS
   @DF-RHF iter  14:  -449.52478892827480   -1.47793e-12   1.38215e-09 DIIS
   @DF-RHF iter  15:  -449.52478892827577   -9.66338e-13   5.87750e-10 DIIS
   @DF-RHF iter  16:  -449.52478892827554    2.27374e-13   1.78369e-10 DIIS
   @DF-RHF iter  17:  -449.52478892827537    1.70530e-13   6.42907e-11 DIIS
  Energy and wave function converged.


  ==> Post-Iterations <==

    Orbital Energies [Eh]
    ---------------------

    Doubly Occupied:                                                      

       1A    -15.636585     2A    -15.636494     3A    -15.592682  
       4A    -15.592562     5A    -11.280249     6A    -11.280158  
       7A    -11.238159     8A    -11.238041     9A    -11.210250  
      10A    -11.210150    11A     -1.387287    12A     -1.387265  
      13A     -1.122269    14A     -1.122161    15A     -1.067259  
      16A     -1.067191    17A     -0.873135    18A     -0.873031  
      19A     -0.837426    20A     -0.837312    21A     -0.757646  
      22A     -0.757524    23A     -0.646112    24A     -0.646017  
      25A     -0.621198    26A     -0.621100    27A     -0.609504  
      28A     -0.609440    29A     -0.584279    30A     -0.584167  
      31A     -0.461776    32A     -0.461685    33A     -0.371091  
      34A     -0.370990    35A     -0.346409    36A     -0.346317  

    Virtual:                                                              

      37A      0.030477    38A      0.030620    39A      0.041994  
      40A      0.042018    41A      0.048813    42A      0.048917  
      43A      0.063180    44A      0.063255    45A      0.100653  
      46A      0.100784    47A      0.103679    48A      0.103774  
      49A      0.116767    50A      0.116847    51A      0.125908  
      52A      0.126018    53A      0.132730    54A      0.132844  
      55A      0.138050    56A      0.138112    57A      0.141150  
      58A      0.141228    59A      0.156517    60A      0.156666  
      61A      0.164236    62A      0.164304    63A      0.170709  
      64A      0.170817    65A      0.178039    66A      0.178120  
      67A      0.195708    68A      0.195825    69A      0.204418  
      70A      0.204545    71A      0.205785    72A      0.205894  
      73A      0.239861    74A      0.239962    75A      0.243270  
      76A      0.243375    77A      0.244595    78A      0.244686  
      79A      0.270739    80A      0.270849    81A      0.278750  
      82A      0.278867    83A      0.300615    84A      0.300711  
      85A      0.324796    86A      0.324897    87A      0.352010  
      88A      0.352109    89A      0.354999    90A      0.355080  
      91A      0.374551    92A      0.374655    93A      0.395727  
      94A      0.395841    95A      0.402391    96A      0.402492  
      97A      0.414647    98A      0.414724    99A      0.431774  
     100A      0.431869   101A      0.442998   102A      0.443077  
     103A      0.453028   104A      0.453148   105A      0.459443  
     106A      0.459537   107A      0.478299   108A      0.478404  
     109A      0.498172   110A      0.498256   111A      0.508320  
     112A      0.508413   113A      0.521576   114A      0.521712  
     115A      0.541193   116A      0.541294   117A      0.574078  
     118A      0.574173   119A      0.585957   120A      0.586060  
     121A      0.590183   122A      0.590284   123A      0.602063  
     124A      0.602185   125A      0.620593   126A      0.620707  
     127A      0.645751   128A      0.645843   129A      0.654949  
     130A      0.655043   131A      0.675796   132A      0.675894  
     133A      0.697680   134A      0.697767   135A      0.700031  
     136A      0.700118   137A      0.721307   138A      0.721386  
     139A      0.724763   140A      0.724867   141A      0.747345  
     142A      0.747449   143A      0.758231   144A      0.758372  
     145A      0.772948   146A      0.773021   147A      0.781115  
     148A      0.781214   149A      0.828129   150A      0.828231  
     151A      0.837873   152A      0.837979   153A      0.848039  
     154A      0.848119   155A      0.881039   156A      0.881129  
     157A      0.888414   158A      0.888504   159A      0.906584  
     160A      0.906678   161A      0.924455   162A      0.924541  
     163A      0.942216   164A      0.942330   165A      0.977845  
     166A      0.977918   167A      0.984488   168A      0.984588  
     169A      1.010771   170A      1.010891   171A      1.046239  
     172A      1.046359   173A      1.066149   174A      1.066244  
     175A      1.100494   176A      1.100599   177A      1.127693  
     178A      1.127827   179A      1.133833   180A      1.133888  
     181A      1.149872   182A      1.149974   183A      1.174803  
     184A      1.174892   185A      1.220179   186A      1.220266  
     187A      1.269196   188A      1.269309   189A      1.302973  
     190A      1.303118   191A      1.311030   192A      1.311163  
     193A      1.365439   194A      1.365531   195A      1.400682  
     196A      1.400768   197A      1.474326   198A      1.474443  
     199A      1.511661   200A      1.511758   201A      1.525767  
     202A      1.525868   203A      1.560625   204A      1.560706  
     205A      1.590528   206A      1.590631   207A      1.608305  
     208A      1.608409   209A      1.637072   210A      1.637161  
     211A      1.669112   212A      1.669227   213A      1.703273  
     214A      1.703374   215A      1.723582   216A      1.723689  
     217A      1.748846   218A      1.748974   219A      1.764013  
     220A      1.764104   221A      1.804681   222A      1.804754  
     223A      1.875279   224A      1.875334   225A      1.932026  
     226A      1.932138   227A      1.943198   228A      1.943292  
     229A      1.987698   230A      1.987861   231A      2.021079  
     232A      2.021184   233A      2.057249   234A      2.057394  
     235A      2.088482   236A      2.088553   237A      2.144323  
     238A      2.144442   239A      2.189649   240A      2.189740  
     241A      2.200462   242A      2.200556   243A      2.230094  
     244A      2.230191   245A      2.275457   246A      2.275552  
     247A      2.307280   248A      2.307374   249A      2.360351  
     250A      2.360373   251A      2.388767   252A      2.388857  
     253A      2.393465   254A      2.393509   255A      2.434881  
     256A      2.434937   257A      2.464605   258A      2.464686  
     259A      2.531433   260A      2.531518   261A      2.569866  
     262A      2.569926   263A      2.584356   264A      2.584565  
     265A      2.642601   266A      2.642699   267A      2.732675  
     268A      2.732761   269A      2.826469   270A      2.826535  
     271A      2.834384   272A      2.834437   273A      2.901221  
     274A      2.901279   275A      2.918238   276A      2.918306  
     277A      2.998796   278A      2.998930   279A      3.054963  
     280A      3.055051   281A      3.091990   282A      3.092171  
     283A      3.122368   284A      3.122440   285A      3.188560  
     286A      3.188734   287A      3.221645   288A      3.221761  
     289A      3.297495   290A      3.297638   291A      3.379880  
     292A      3.379959   293A      3.520363   294A      3.520498  
     295A      3.686023   296A      3.686199   297A      3.888963  
     298A      3.888987   299A      4.209040   300A      4.209060  
     301A      4.462762   302A      4.462873  

    Final Occupation by Irrep:
              A 
    DOCC [    36 ]

  @DF-RHF Final Energy:  -449.52478892827537

   => Energetics <=

    Nuclear Repulsion Energy =            373.5581502132271794
    One-Electron Energy =               -1347.5960427361178517
    Two-Electron Energy =                 524.5131035946152451
    Total Energy =                       -449.5247889282753704

Computation Completed


Properties will be evaluated at   0.000000,   0.000000,   0.000000 [a0]

Properties computed using the SCF density matrix

  Nuclear Dipole Moment: [e a0]
     X:  -231.8258      Y:  -644.9161      Z:   957.9487

  Electronic Dipole Moment: [e a0]
     X:   231.7140      Y:   644.9835      Z:  -958.0726

  Dipole Moment: [e a0]
     X:    -0.1118      Y:     0.0674      Z:    -0.1238     Total:     0.1800

  Dipole Moment: [D]
     X:    -0.2842      Y:     0.1714      Z:    -0.3147     Total:     0.4574


*** tstop() called on ds1 at Mon Oct  4 15:40:50 2021
Module time:
	user time   =      22.79 seconds =       0.38 minutes
	system time =       0.57 seconds =       0.01 minutes
	total time  =          5 seconds =       0.08 minutes
Total time:
	user time   =      22.79 seconds =       0.38 minutes
	system time =       0.57 seconds =       0.01 minutes
	total time  =          5 seconds =       0.08 minutes

  //>>>>>>>>>>>>>>>>>>>>>>>>>>>>>>>>>>>//
  //            Monomer A HF           //
  //<<<<<<<<<<<<<<<<<<<<<<<<<<<<<<<<<<<//


*** tstart() called on ds1
*** at Mon Oct  4 15:40:50 2021

   => Loading Basis Set <=

    Name: AUG-CC-PVDZ
    Role: ORBITAL
    Keyword: BASIS
    atoms 1-2, 10-11 entry N          line   218 file /theoryfs2/ds/csargent/miniconda3/envs/cle/share/psi4/basis/aug-cc-pvdz.gbs 
    atoms 3-6, 12-15 entry H          line    40 file /theoryfs2/ds/csargent/miniconda3/envs/cle/share/psi4/basis/aug-cc-pvdz.gbs 
    atoms 7-9, 16-18 entry C          line   182 file /theoryfs2/ds/csargent/miniconda3/envs/cle/share/psi4/basis/aug-cc-pvdz.gbs 


         ---------------------------------------------------------
                                   SCF
               by Justin Turney, Rob Parrish, Andy Simmonett
                          and Daniel G. A. Smith
                              RHF Reference
                        6 Threads,   6675 MiB Core
         ---------------------------------------------------------

  ==> Geometry <==

    Molecular point group: c1
    Full point group: C1

    Geometry (in Bohr), charge = 0, multiplicity = 1:

       Center              X                  Y                   Z               Mass       
    ------------   -----------------  -----------------  -----------------  -----------------
         N            6.279812100000    -4.253033720000     0.193138650000    14.003074004430
         N            6.068707770000    -2.281256970000     1.805443170000    14.003074004430
         H            3.668711560000    -5.646289410000    -1.966840010000     1.007825032230
         H            0.690345210000    -2.375456940000    -0.428642360000     1.007825032230
         H            3.359174420000     0.176506010000     3.092650170000     1.007825032230
         H            7.352667820000    -1.994613110000     2.906807020000     1.007825032230
         C            3.779525860000    -1.215084530000     1.768581720000    12.000000000000
         C            2.382429980000    -2.555055380000     0.046076810000    12.000000000000
         C            4.017714680000    -4.384104900000    -0.887618630000    12.000000000000
      Gh(N)         -12.678718610000   -14.187325020000    27.186088310000    14.003074004430
      Gh(N)         -12.559856350000   -16.225232050000    25.648914590000    14.003074004430
      Gh(H)         -10.005555880000   -11.786415050000    27.904118660000     1.007825032230
      Gh(H)          -7.110919320000   -14.228953800000    25.148981160000     1.007825032230
      Gh(H)         -10.047343390000   -17.942002810000    23.244344850000     1.007825032230
      Gh(H)         -14.022264570000   -17.035209110000    25.263149260000     1.007825032230
      Gh(C)         -10.277019950000   -16.555407720000    24.619865740000    12.000000000000
      Gh(C)          -8.794027510000   -14.625735510000    25.509788210000    12.000000000000
      Gh(C)         -10.355332840000   -13.240567690000    27.101486160000    12.000000000000

  Running in c1 symmetry.

  Rotational constants: A =      0.02247  B =      0.00086  C =      0.00084 [cm^-1]
  Rotational constants: A =    673.57248  B =     25.79813  C =     25.09304 [MHz]
  Nuclear repulsion =  166.624056450327203

  Charge       = 0
  Multiplicity = 1
  Electrons    = 36
  Nalpha       = 18
  Nbeta        = 18

  ==> Algorithm <==

  SCF Algorithm Type is DF.
  DIIS enabled.
  MOM disabled.
  Fractional occupation disabled.
  Guess Type is SAD.
  Energy threshold   = 1.00e-10
  Density threshold  = 1.00e-10
  Integral threshold = 1.00e-12

  ==> Primary Basis <==

  Basis Set: AUG-CC-PVDZ
    Blend: AUG-CC-PVDZ
    Number of shells: 130
    Number of basis functions: 302
    Number of Cartesian functions: 322
    Spherical Harmonics?: true
    Max angular momentum: 2

   => Loading Basis Set <=

    Name: (AUG-CC-PVDZ AUX)
    Role: JKFIT
    Keyword: DF_BASIS_SCF
    atoms 1-2, 10-11 entry N          line   212 file /theoryfs2/ds/csargent/miniconda3/envs/cle/share/psi4/basis/aug-cc-pvdz-jkfit.gbs 
    atoms 3-6, 12-15 entry H          line    70 file /theoryfs2/ds/csargent/miniconda3/envs/cle/share/psi4/basis/aug-cc-pvdz-jkfit.gbs 
    atoms 7-9, 16-18 entry C          line   154 file /theoryfs2/ds/csargent/miniconda3/envs/cle/share/psi4/basis/aug-cc-pvdz-jkfit.gbs 

  ==> Integral Setup <==

  ==> DiskDFJK: Density-Fitted J/K Matrices <==

    J tasked:                  Yes
    K tasked:                  Yes
    wK tasked:                  No
    OpenMP threads:              6
    Integrals threads:           6
    Memory [MiB]:             5006
    Algorithm:                Core
    Integral Cache:           LOAD
    Schwarz Cutoff:          1E-12
    Fitting Condition:       1E-10

   => Auxiliary Basis Set <=

  Basis Set: (AUG-CC-PVDZ AUX)
    Blend: AUG-CC-PVDZ-JKFIT
    Number of shells: 376
    Number of basis functions: 1116
    Number of Cartesian functions: 1290
    Spherical Harmonics?: true
    Max angular momentum: 3

  Minimum eigenvalue in the overlap matrix is 3.0324469127E-05.
  Reciprocal condition number of the overlap matrix is 2.4867199170E-06.
    Using symmetric orthogonalization.

  ==> Pre-Iterations <==

  SCF Guess: Superposition of Atomic Densities via on-the-fly atomic UHF (no occupation information).

   -------------------------
    Irrep   Nso     Nmo    
   -------------------------
     A        302     302 
   -------------------------
    Total     302     302
   -------------------------

  ==> Iterations <==

                           Total Energy        Delta E     RMS |[F,P]|

   @DF-RHF iter SAD:  -224.72194801292369   -2.24722e+02   0.00000e+00 
   @DF-RHF iter   1:  -224.63549169942473    8.64563e-02   1.50472e-03 DIIS
   @DF-RHF iter   2:  -224.73984613231258   -1.04354e-01   6.88462e-04 DIIS
   @DF-RHF iter   3:  -224.76075487126656   -2.09087e-02   1.48626e-04 DIIS
   @DF-RHF iter   4:  -224.76213931503233   -1.38444e-03   6.05310e-05 DIIS
   @DF-RHF iter   5:  -224.76231766978867   -1.78355e-04   1.19893e-05 DIIS
   @DF-RHF iter   6:  -224.76233462726177   -1.69575e-05   4.96772e-06 DIIS
   @DF-RHF iter   7:  -224.76233858329928   -3.95604e-06   2.18806e-06 DIIS
   @DF-RHF iter   8:  -224.76233934404121   -7.60742e-07   1.01700e-06 DIIS
   @DF-RHF iter   9:  -224.76233951168308   -1.67642e-07   2.83302e-07 DIIS
   @DF-RHF iter  10:  -224.76233952050436   -8.82127e-09   8.55547e-08 DIIS
   @DF-RHF iter  11:  -224.76233952119330   -6.88942e-10   1.99714e-08 DIIS
   @DF-RHF iter  12:  -224.76233952124002   -4.67253e-11   5.81092e-09 DIIS
   @DF-RHF iter  13:  -224.76233952124394   -3.92220e-12   2.83097e-09 DIIS
   @DF-RHF iter  14:  -224.76233952124448   -5.40012e-13   9.75191e-10 DIIS
   @DF-RHF iter  15:  -224.76233952124534   -8.52651e-13   4.15547e-10 DIIS
   @DF-RHF iter  16:  -224.76233952124525    8.52651e-14   1.25998e-10 DIIS
   @DF-RHF iter  17:  -224.76233952124517    8.52651e-14   4.47776e-11 DIIS
  Energy and wave function converged.


  ==> Post-Iterations <==

    Orbital Energies [Eh]
    ---------------------

    Doubly Occupied:                                                      

       1A    -15.636223     2A    -15.592313     3A    -11.279894  
       4A    -11.237784     5A    -11.209891     6A     -1.386922  
       7A     -1.121901     8A     -1.066898     9A     -0.872768  
      10A     -0.837061    11A     -0.757292    12A     -0.645746  
      13A     -0.620834    14A     -0.609140    15A     -0.583920  
      16A     -0.461404    17A     -0.370721    18A     -0.346048  

    Virtual:                                                              

      19A      0.022439    20A      0.030764    21A      0.039784  
      22A      0.042368    23A      0.043917    24A      0.049159  
      25A      0.063519    26A      0.065672    27A      0.083729  
      28A      0.090478    29A      0.098746    30A      0.100998  
      31A      0.104029    32A      0.117179    33A      0.118103  
      34A      0.125565    35A      0.126270    36A      0.128046  
      37A      0.133064    38A      0.133140    39A      0.133885  
      40A      0.138403    41A      0.141490    42A      0.156888  
      43A      0.158284    44A      0.164592    45A      0.165742  
      46A      0.171075    47A      0.178407    48A      0.178979  
      49A      0.195271    50A      0.196042    51A      0.201295  
      52A      0.204793    53A      0.206162    54A      0.222716  
      55A      0.224927    56A      0.227998    57A      0.235338  
      58A      0.240236    59A      0.243626    60A      0.244965  
      61A      0.263822    62A      0.270832    63A      0.271127  
      64A      0.279080    65A      0.301010    66A      0.321677  
      67A      0.325148    68A      0.339886    69A      0.352358  
      70A      0.355357    71A      0.366340    72A      0.372662  
      73A      0.374907    74A      0.383484    75A      0.396061  
      76A      0.402741    77A      0.414998    78A      0.427262  
      79A      0.431848    80A      0.432132    81A      0.440951  
      82A      0.442108    83A      0.443385    84A      0.453393  
      85A      0.455796    86A      0.457199    87A      0.459816  
      88A      0.461667    89A      0.478655    90A      0.498543  
      91A      0.508690    92A      0.509539    93A      0.519221  
      94A      0.521917    95A      0.532934    96A      0.537813  
      97A      0.541560    98A      0.559098    99A      0.568656  
     100A      0.571624   101A      0.574432   102A      0.586318  
     103A      0.590538   104A      0.594937   105A      0.602413  
     106A      0.613143   107A      0.620953   108A      0.621042  
     109A      0.633319   110A      0.646110   111A      0.655295  
     112A      0.676162   113A      0.690623   114A      0.698041  
     115A      0.700391   116A      0.707593   117A      0.719239  
     118A      0.721667   119A      0.725115   120A      0.735467  
     121A      0.745129   122A      0.747709   123A      0.758592  
     124A      0.773318   125A      0.781481   126A      0.789467  
     127A      0.797934   128A      0.814237   129A      0.820709  
     130A      0.828504   131A      0.838230   132A      0.848394  
     133A      0.851739   134A      0.854925   135A      0.870799  
     136A      0.880870   137A      0.881395   138A      0.888767  
     139A      0.895466   140A      0.906950   141A      0.915978  
     142A      0.924815   143A      0.942583   144A      0.951907  
     145A      0.978222   146A      0.984850   147A      0.997002  
     148A      1.011149   149A      1.023985   150A      1.030064  
     151A      1.046606   152A      1.051494   153A      1.066503  
     154A      1.070965   155A      1.080804   156A      1.100852  
     157A      1.108046   158A      1.128058   159A      1.134196  
     160A      1.150235   161A      1.158665   162A      1.166154  
     163A      1.175168   164A      1.184842   165A      1.220548  
     166A      1.221628   167A      1.236944   168A      1.267854  
     169A      1.269556   170A      1.293631   171A      1.303342  
     172A      1.311399   173A      1.315042   174A      1.340562  
     175A      1.365807   176A      1.381722   177A      1.401043  
     178A      1.434910   179A      1.444652   180A      1.474691  
     181A      1.493128   182A      1.506966   183A      1.512027  
     184A      1.526129   185A      1.560989   186A      1.590882  
     187A      1.608669   188A      1.637437   189A      1.669472  
     190A      1.676634   191A      1.688800   192A      1.703634  
     193A      1.723950   194A      1.749215   195A      1.764373  
     196A      1.805048   197A      1.875632   198A      1.932390  
     199A      1.943558   200A      1.988067   201A      2.021445  
     202A      2.040958   203A      2.057611   204A      2.088839  
     205A      2.109001   206A      2.134676   207A      2.144687  
     208A      2.168001   209A      2.190005   210A      2.200827  
     211A      2.216523   212A      2.230457   213A      2.233752  
     214A      2.261762   215A      2.275825   216A      2.277594  
     217A      2.289159   218A      2.307640   219A      2.335555  
     220A      2.360716   221A      2.380462   222A      2.389130  
     223A      2.393822   224A      2.394453   225A      2.435246  
     226A      2.443781   227A      2.464967   228A      2.478189  
     229A      2.499828   230A      2.513602   231A      2.531798  
     232A      2.548731   233A      2.570232   234A      2.584716  
     235A      2.631233   236A      2.642961   237A      2.667456  
     238A      2.702960   239A      2.718800   240A      2.733029  
     241A      2.826838   242A      2.827842   243A      2.834751  
     244A      2.869766   245A      2.889940   246A      2.901587  
     247A      2.918598   248A      2.944994   249A      2.999157  
     250A      3.027894   251A      3.055324   252A      3.089677  
     253A      3.092358   254A      3.122730   255A      3.139945  
     256A      3.181793   257A      3.188930   258A      3.222008  
     259A      3.254081   260A      3.289035   261A      3.297865  
     262A      3.355598   263A      3.380235   264A      3.395552  
     265A      3.423356   266A      3.448115   267A      3.487131  
     268A      3.497462   269A      3.520727   270A      3.633531  
     271A      3.666890   272A      3.686563   273A      3.735544  
     274A      3.770067   275A      3.851100   276A      3.889327  
     277A      3.964465   278A      4.035581   279A      4.094706  
     280A      4.209428   281A      4.244012   282A      4.448178  
     283A      4.463235   284A      4.658406   285A      4.708107  
     286A      4.749871   287A      4.810776   288A      4.994785  
     289A      5.076658   290A      5.241186   291A      5.531411  
     292A      5.668984   293A      5.826610   294A      6.106966  
     295A      6.318093   296A      6.707488   297A      6.967444  
     298A     18.111083   299A     18.647980   300A     19.373621  
     301A     25.245379   302A     25.705291  

    Final Occupation by Irrep:
              A 
    DOCC [    18 ]

  @DF-RHF Final Energy:  -224.76233952124517

   => Energetics <=

    Nuclear Repulsion Energy =            166.6240564503272026
    One-Electron Energy =                -633.4992733891870103
    Two-Electron Energy =                 242.1128774176146408
    Total Energy =                       -224.7623395212451669

Computation Completed


Properties will be evaluated at   0.000000,   0.000000,   0.000000 [a0]

Properties computed using the SCF density matrix

  Nuclear Dipole Moment: [e a0]
     X:   162.5886      Y:  -104.5054      Z:    23.1563

  Electronic Dipole Moment: [e a0]
     X:  -162.9913      Y:   105.1370      Z:   -22.5767

  Dipole Moment: [e a0]
     X:    -0.4027      Y:     0.6317      Z:     0.5796     Total:     0.9472

  Dipole Moment: [D]
     X:    -1.0235      Y:     1.6055      Z:     1.4733     Total:     2.4075


*** tstop() called on ds1 at Mon Oct  4 15:40:54 2021
Module time:
	user time   =      16.69 seconds =       0.28 minutes
	system time =       0.58 seconds =       0.01 minutes
	total time  =          4 seconds =       0.07 minutes
Total time:
	user time   =      39.78 seconds =       0.66 minutes
	system time =       1.15 seconds =       0.02 minutes
	total time  =          9 seconds =       0.15 minutes

  //>>>>>>>>>>>>>>>>>>>>>>>>>>>>>>>>>>>//
  //            Monomer B HF           //
  //<<<<<<<<<<<<<<<<<<<<<<<<<<<<<<<<<<<//


*** tstart() called on ds1
*** at Mon Oct  4 15:40:54 2021

   => Loading Basis Set <=

    Name: AUG-CC-PVDZ
    Role: ORBITAL
    Keyword: BASIS
    atoms 1-2, 10-11 entry N          line   218 file /theoryfs2/ds/csargent/miniconda3/envs/cle/share/psi4/basis/aug-cc-pvdz.gbs 
    atoms 3-6, 12-15 entry H          line    40 file /theoryfs2/ds/csargent/miniconda3/envs/cle/share/psi4/basis/aug-cc-pvdz.gbs 
    atoms 7-9, 16-18 entry C          line   182 file /theoryfs2/ds/csargent/miniconda3/envs/cle/share/psi4/basis/aug-cc-pvdz.gbs 


         ---------------------------------------------------------
                                   SCF
               by Justin Turney, Rob Parrish, Andy Simmonett
                          and Daniel G. A. Smith
                              RHF Reference
                        6 Threads,   6675 MiB Core
         ---------------------------------------------------------

  ==> Geometry <==

    Molecular point group: c1
    Full point group: C1

    Geometry (in Bohr), charge = 0, multiplicity = 1:

       Center              X                  Y                   Z               Mass       
    ------------   -----------------  -----------------  -----------------  -----------------
      Gh(N)           6.279812100000    -4.253033720000     0.193138650000    14.003074004430
      Gh(N)           6.068707770000    -2.281256970000     1.805443170000    14.003074004430
      Gh(H)           3.668711560000    -5.646289410000    -1.966840010000     1.007825032230
      Gh(H)           0.690345210000    -2.375456940000    -0.428642360000     1.007825032230
      Gh(H)           3.359174420000     0.176506010000     3.092650170000     1.007825032230
      Gh(H)           7.352667820000    -1.994613110000     2.906807020000     1.007825032230
      Gh(C)           3.779525860000    -1.215084530000     1.768581720000    12.000000000000
      Gh(C)           2.382429980000    -2.555055380000     0.046076810000    12.000000000000
      Gh(C)           4.017714680000    -4.384104900000    -0.887618630000    12.000000000000
         N          -12.678718610000   -14.187325020000    27.186088310000    14.003074004430
         N          -12.559856350000   -16.225232050000    25.648914590000    14.003074004430
         H          -10.005555880000   -11.786415050000    27.904118660000     1.007825032230
         H           -7.110919320000   -14.228953800000    25.148981160000     1.007825032230
         H          -10.047343390000   -17.942002810000    23.244344850000     1.007825032230
         H          -14.022264570000   -17.035209110000    25.263149260000     1.007825032230
         C          -10.277019950000   -16.555407720000    24.619865740000    12.000000000000
         C           -8.794027510000   -14.625735510000    25.509788210000    12.000000000000
         C          -10.355332840000   -13.240567690000    27.101486160000    12.000000000000

  Running in c1 symmetry.

  Rotational constants: A =      0.02247  B =      0.00086  C =      0.00084 [cm^-1]
  Rotational constants: A =    673.57248  B =     25.79813  C =     25.09304 [MHz]
  Nuclear repulsion =  166.628602794674435

  Charge       = 0
  Multiplicity = 1
  Electrons    = 36
  Nalpha       = 18
  Nbeta        = 18

  ==> Algorithm <==

  SCF Algorithm Type is DF.
  DIIS enabled.
  MOM disabled.
  Fractional occupation disabled.
  Guess Type is SAD.
  Energy threshold   = 1.00e-10
  Density threshold  = 1.00e-10
  Integral threshold = 1.00e-12

  ==> Primary Basis <==

  Basis Set: AUG-CC-PVDZ
    Blend: AUG-CC-PVDZ
    Number of shells: 130
    Number of basis functions: 302
    Number of Cartesian functions: 322
    Spherical Harmonics?: true
    Max angular momentum: 2

   => Loading Basis Set <=

    Name: (AUG-CC-PVDZ AUX)
    Role: JKFIT
    Keyword: DF_BASIS_SCF
    atoms 1-2, 10-11 entry N          line   212 file /theoryfs2/ds/csargent/miniconda3/envs/cle/share/psi4/basis/aug-cc-pvdz-jkfit.gbs 
    atoms 3-6, 12-15 entry H          line    70 file /theoryfs2/ds/csargent/miniconda3/envs/cle/share/psi4/basis/aug-cc-pvdz-jkfit.gbs 
    atoms 7-9, 16-18 entry C          line   154 file /theoryfs2/ds/csargent/miniconda3/envs/cle/share/psi4/basis/aug-cc-pvdz-jkfit.gbs 

  ==> Integral Setup <==

  ==> DiskDFJK: Density-Fitted J/K Matrices <==

    J tasked:                  Yes
    K tasked:                  Yes
    wK tasked:                  No
    OpenMP threads:              6
    Integrals threads:           6
    Memory [MiB]:             5006
    Algorithm:                Core
    Integral Cache:           LOAD
    Schwarz Cutoff:          1E-12
    Fitting Condition:       1E-10

   => Auxiliary Basis Set <=

  Basis Set: (AUG-CC-PVDZ AUX)
    Blend: AUG-CC-PVDZ-JKFIT
    Number of shells: 376
    Number of basis functions: 1116
    Number of Cartesian functions: 1290
    Spherical Harmonics?: true
    Max angular momentum: 3

  Minimum eigenvalue in the overlap matrix is 3.0324469127E-05.
  Reciprocal condition number of the overlap matrix is 2.4867199170E-06.
    Using symmetric orthogonalization.

  ==> Pre-Iterations <==

  SCF Guess: Superposition of Atomic Densities via on-the-fly atomic UHF (no occupation information).

   -------------------------
    Irrep   Nso     Nmo    
   -------------------------
     A        302     302 
   -------------------------
    Total     302     302
   -------------------------

  ==> Iterations <==

                           Total Energy        Delta E     RMS |[F,P]|

   @DF-RHF iter SAD:  -224.72250854535983   -2.24723e+02   0.00000e+00 
   @DF-RHF iter   1:  -224.63556595811349    8.69426e-02   1.50490e-03 DIIS
   @DF-RHF iter   2:  -224.73993304576078   -1.04367e-01   6.88620e-04 DIIS
   @DF-RHF iter   3:  -224.76085079932693   -2.09178e-02   1.48614e-04 DIIS
   @DF-RHF iter   4:  -224.76223499795873   -1.38420e-03   6.05151e-05 DIIS
   @DF-RHF iter   5:  -224.76241324245589   -1.78244e-04   1.19848e-05 DIIS
   @DF-RHF iter   6:  -224.76243017560293   -1.69331e-05   4.96323e-06 DIIS
   @DF-RHF iter   7:  -224.76243412344542   -3.94784e-06   2.18627e-06 DIIS
   @DF-RHF iter   8:  -224.76243488298422   -7.59539e-07   1.01631e-06 DIIS
   @DF-RHF iter   9:  -224.76243505048916   -1.67505e-07   2.83280e-07 DIIS
   @DF-RHF iter  10:  -224.76243505930674   -8.81758e-09   8.55270e-08 DIIS
   @DF-RHF iter  11:  -224.76243505999633   -6.89596e-10   1.99678e-08 DIIS
   @DF-RHF iter  12:  -224.76243506004192   -4.55884e-11   5.80974e-09 DIIS
   @DF-RHF iter  13:  -224.76243506004650   -4.57590e-12   2.83583e-09 DIIS
   @DF-RHF iter  14:  -224.76243506004749   -9.94760e-13   9.79833e-10 DIIS
   @DF-RHF iter  15:  -224.76243506004738    1.13687e-13   4.16538e-10 DIIS
   @DF-RHF iter  16:  -224.76243506004772   -3.41061e-13   1.25809e-10 DIIS
   @DF-RHF iter  17:  -224.76243506004769    2.84217e-14   4.47602e-11 DIIS
  Energy and wave function converged.


  ==> Post-Iterations <==

    Orbital Energies [Eh]
    ---------------------

    Doubly Occupied:                                                      

       1A    -15.636233     2A    -15.592291     3A    -11.279903  
       4A    -11.237759     5A    -11.209884     6A     -1.387001  
       7A     -1.121894     8A     -1.066928     9A     -0.872759  
      10A     -0.837039    11A     -0.757272    12A     -0.645745  
      13A     -0.620828    14A     -0.609177    15A     -0.583905  
      16A     -0.461413    17A     -0.370715    18A     -0.346055  

    Virtual:                                                              

      19A      0.022348    20A      0.030764    21A      0.039701  
      22A      0.042369    23A      0.043835    24A      0.049158  
      25A      0.063518    26A      0.065589    27A      0.083625  
      28A      0.090399    29A      0.098646    30A      0.101001  
      31A      0.104028    32A      0.117186    33A      0.118021  
      34A      0.125493    35A      0.126272    36A      0.127959  
      37A      0.133029    38A      0.133082    39A      0.133795  
      40A      0.138399    41A      0.141487    42A      0.156889  
      43A      0.158228    44A      0.164593    45A      0.165651  
      46A      0.171081    47A      0.178407    48A      0.178894  
      49A      0.195150    50A      0.196040    51A      0.201178  
      52A      0.204806    53A      0.206166    54A      0.222597  
      55A      0.224824    56A      0.227915    57A      0.235243  
      58A      0.240240    59A      0.243627    60A      0.244965  
      61A      0.263734    62A      0.270718    63A      0.271138  
      64A      0.279081    65A      0.301024    66A      0.321585  
      67A      0.325138    68A      0.339783    69A      0.352354  
      70A      0.355359    71A      0.366227    72A      0.372574  
      73A      0.374909    74A      0.383403    75A      0.396062  
      76A      0.402744    77A      0.415005    78A      0.427172  
      79A      0.431744    80A      0.432131    81A      0.440875  
      82A      0.442028    83A      0.443379    84A      0.453414  
      85A      0.455688    86A      0.457112    87A      0.459816  
      88A      0.461570    89A      0.478656    90A      0.498544  
      91A      0.508693    92A      0.509426    93A      0.519117  
      94A      0.521953    95A      0.532825    96A      0.537734  
      97A      0.541569    98A      0.559013    99A      0.568532  
     100A      0.571534   101A      0.574428   102A      0.586322  
     103A      0.590547   104A      0.594865   105A      0.602431  
     106A      0.613062   107A      0.620938   108A      0.620975  
     109A      0.633217   110A      0.646111   111A      0.655304  
     112A      0.676168   113A      0.690537   114A      0.698039  
     115A      0.700384   116A      0.707505   117A      0.719146  
     118A      0.721648   119A      0.725121   120A      0.735374  
     121A      0.745045   122A      0.747717   123A      0.758643  
     124A      0.773300   125A      0.781476   126A      0.789374  
     127A      0.797821   128A      0.814153   129A      0.820617  
     130A      0.828513   131A      0.838238   132A      0.848382  
     133A      0.851648   134A      0.854822   135A      0.870727  
     136A      0.880767   137A      0.881397   138A      0.888762  
     139A      0.895376   140A      0.906950   141A      0.915871  
     142A      0.924803   143A      0.942599   144A      0.951795  
     145A      0.978204   146A      0.984853   147A      0.996897  
     148A      1.011170   149A      1.023901   150A      1.029967  
     151A      1.046624   152A      1.051393   153A      1.066503  
     154A      1.070885   155A      1.080728   156A      1.100853  
     157A      1.107922   158A      1.128099   159A      1.134152  
     160A      1.150240   161A      1.158548   162A      1.166048  
     163A      1.175167   164A      1.184746   165A      1.220538  
     166A      1.221482   167A      1.236810   168A      1.267763  
     169A      1.269573   170A      1.293497   171A      1.303390  
     172A      1.311430   173A      1.314928   174A      1.340469  
     175A      1.365802   176A      1.381617   177A      1.401039  
     178A      1.434780   179A      1.444507   180A      1.474706  
     181A      1.493028   182A      1.506812   183A      1.512021  
     184A      1.526136   185A      1.560976   186A      1.590889  
     187A      1.608679   188A      1.637435   189A      1.669494  
     190A      1.676512   191A      1.688688   192A      1.703636  
     193A      1.723957   194A      1.749249   195A      1.764367  
     196A      1.805025   197A      1.875589   198A      1.932406  
     199A      1.943562   200A      1.988139   201A      2.021453  
     202A      2.040878   203A      2.057662   204A      2.088810  
     205A      2.108896   206A      2.134637   207A      2.144708  
     208A      2.167931   209A      2.189999   210A      2.200828  
     211A      2.216454   212A      2.230454   213A      2.233671  
     214A      2.261673   215A      2.275832   216A      2.277549  
     217A      2.289074   218A      2.307637   219A      2.335524  
     220A      2.360646   221A      2.380367   222A      2.389121  
     223A      2.393758   224A      2.394356   225A      2.435199  
     226A      2.443700   227A      2.464942   228A      2.478136  
     229A      2.499713   230A      2.513423   231A      2.531785  
     232A      2.548642   233A      2.570195   234A      2.584820  
     235A      2.631145   236A      2.642959   237A      2.667338  
     238A      2.702834   239A      2.718704   240A      2.733013  
     241A      2.826807   242A      2.827720   243A      2.834707  
     244A      2.869627   245A      2.889851   246A      2.901543  
     247A      2.918563   248A      2.944955   249A      2.999195  
     250A      3.027882   251A      3.055311   252A      3.089651  
     253A      3.092440   254A      3.122703   255A      3.139845  
     256A      3.181782   257A      3.189011   258A      3.222030  
     259A      3.253950   260A      3.288993   261A      3.297913  
     262A      3.355580   263A      3.380219   264A      3.395406  
     265A      3.423310   266A      3.448102   267A      3.486982  
     268A      3.497325   269A      3.520764   270A      3.633359  
     271A      3.666762   272A      3.686295   273A      3.735431  
     274A      3.769894   275A      3.850978   276A      3.889250  
     277A      3.964219   278A      4.035320   279A      4.094574  
     280A      4.209312   281A      4.243905   282A      4.448244  
     283A      4.463032   284A      4.658222   285A      4.707857  
     286A      4.749757   287A      4.810602   288A      4.994687  
     289A      5.076623   290A      5.241276   291A      5.531061  
     292A      5.668775   293A      5.826680   294A      6.106516  
     295A      6.318149   296A      6.708199   297A      6.967687  
     298A     18.111008   299A     18.647683   300A     19.373425  
     301A     25.245362   302A     25.704773  

    Final Occupation by Irrep:
              A 
    DOCC [    18 ]

  @DF-RHF Final Energy:  -224.76243506004769

   => Energetics <=

    Nuclear Repulsion Energy =            166.6286027946744355
    One-Electron Energy =                -633.5084733662041572
    Two-Electron Energy =                 242.1174355114820571
    Total Energy =                       -224.7624350600476930

Computation Completed


Properties will be evaluated at   0.000000,   0.000000,   0.000000 [a0]

Properties computed using the SCF density matrix

  Nuclear Dipole Moment: [e a0]
     X:  -394.4144      Y:  -540.4107      Z:   934.7925

  Electronic Dipole Moment: [e a0]
     X:   394.7053      Y:   539.8467      Z:  -935.4956

  Dipole Moment: [e a0]
     X:     0.2909      Y:    -0.5640      Z:    -0.7031     Total:     0.9472

  Dipole Moment: [D]
     X:     0.7394      Y:    -1.4336      Z:    -1.7871     Total:     2.4074


*** tstop() called on ds1 at Mon Oct  4 15:40:57 2021
Module time:
	user time   =      16.22 seconds =       0.27 minutes
	system time =       0.32 seconds =       0.01 minutes
	total time  =          3 seconds =       0.05 minutes
Total time:
	user time   =      56.03 seconds =       0.93 minutes
	system time =       1.47 seconds =       0.02 minutes
	total time  =         12 seconds =       0.20 minutes
  Constructing Basis Sets for SAPT...

   => Loading Basis Set <=

    Name: (AUG-CC-PVDZ AUX)
    Role: RIFIT
    Keyword: DF_BASIS_SAPT
    atoms 1-2, 10-11 entry N          line   158 file /theoryfs2/ds/csargent/miniconda3/envs/cle/share/psi4/basis/aug-cc-pvdz-ri.gbs 
    atoms 3-6, 12-15 entry H          line    30 file /theoryfs2/ds/csargent/miniconda3/envs/cle/share/psi4/basis/aug-cc-pvdz-ri.gbs 
    atoms 7-9, 16-18 entry C          line   112 file /theoryfs2/ds/csargent/miniconda3/envs/cle/share/psi4/basis/aug-cc-pvdz-ri.gbs 


  //>>>>>>>>>>>>>>>>>>>>>>>>>>>>>>>>>>>//
  //               SAPT0               //
  //<<<<<<<<<<<<<<<<<<<<<<<<<<<<<<<<<<<//


*** tstart() called on ds1
*** at Mon Oct  4 15:40:58 2021

        SAPT0  
    Ed Hohenstein
     6 June 2009

      Orbital Information
  --------------------------
    NSO        =       302
    NMO        =       302
    NRI        =       904
    NOCC A     =        18
    NOCC B     =        18
    FOCC A     =         5
    FOCC B     =         5
    NVIR A     =       284
    NVIR B     =       284

    Elst10,r            =    -0.000014388091 [Eh]
    Exch10              =     0.000000000000 [Eh]
    Exch10 (S^2)        =     0.000000000000 [Eh]

    Iter     Energy [mEh]          dE [mEh]         Residual      Time [s]
       1      -0.00001684       0.000016839       0.040521425             0
       2      -0.00001534      -0.000001497       0.009902509             0
       3      -0.00001638       0.000001035       0.004996114             0
       4      -0.00001680       0.000000426       0.001027962             0
       5      -0.00001676      -0.000000043       0.000688793             0
       6      -0.00001674      -0.000000023       0.000233651             0
       7      -0.00001674       0.000000007       0.000110664             1
       8      -0.00001675       0.000000002       0.000033765             1
       9      -0.00001675      -0.000000000       0.000007674             1
      10      -0.00001675      -0.000000000       0.000001941             1
      11      -0.00001675       0.000000000       0.000000668             1

    CHF Iterations converged


    Iter     Energy [mEh]          dE [mEh]         Residual      Time [s]
       1      -0.00002129       0.000021287       0.048631228             0
       2      -0.00001948      -0.000001810       0.011564517             0
       3      -0.00002120       0.000001721       0.005020780             0
       4      -0.00002154       0.000000346       0.001360397             1
       5      -0.00002148      -0.000000058       0.000783745             1
       6      -0.00002146      -0.000000027       0.000249824             1
       7      -0.00002147       0.000000009       0.000092799             1
       8      -0.00002147       0.000000002       0.000021441             1
       9      -0.00002147      -0.000000001       0.000008124             1
      10      -0.00002147      -0.000000000       0.000002231             1
      11      -0.00002147       0.000000000       0.000001037             1
      12      -0.00002147       0.000000000       0.000000270             2

    CHF Iterations converged

    Ind20,r (A<-B)      =    -0.000000016745 [Eh]
    Ind20,r (B<-A)      =    -0.000000021468 [Eh]
    Ind20,r             =    -0.000000038213 [Eh]
    Exch-Ind20,r (A<-B) =     0.000000000000 [Eh]
    Exch-Ind20,r (B<-A) =     0.000000000000 [Eh]
    Exch-Ind20,r        =     0.000000000000 [Eh]
    Disp20              =    -0.000000972124 [Eh]
    Disp20 (SS)         =    -0.000000486062 [Eh]
    Disp20 (OS)         =    -0.000000486062 [Eh]
    Exch-Disp20         =     0.000000000000 [Eh]
    Exch-Disp20 (SS)    =     0.000000000000 [Eh]
    Exch-Disp20 (OS)    =     0.000000000000 [Eh]

    SAPT Results 
  --------------------------------------------------------------------------------------------------------
    Electrostatics                 -0.01438809 [mEh]      -0.00902866 [kcal/mol]      -0.03777593 [kJ/mol]
      Elst10,r                     -0.01438809 [mEh]      -0.00902866 [kcal/mol]      -0.03777593 [kJ/mol]

    Exchange                        0.00000000 [mEh]       0.00000000 [kcal/mol]       0.00000000 [kJ/mol]
      Exch10                        0.00000000 [mEh]       0.00000000 [kcal/mol]       0.00000000 [kJ/mol]
      Exch10(S^2)                   0.00000000 [mEh]       0.00000000 [kcal/mol]       0.00000000 [kJ/mol]

    Induction                       0.00004111 [mEh]       0.00002580 [kcal/mol]       0.00010793 [kJ/mol]
      Ind20,r                      -0.00003821 [mEh]      -0.00002398 [kcal/mol]      -0.00010033 [kJ/mol]
      Exch-Ind20,r                  0.00000000 [mEh]       0.00000000 [kcal/mol]       0.00000000 [kJ/mol]
      delta HF,r (2)                0.00007932 [mEh]       0.00004977 [kcal/mol]       0.00020826 [kJ/mol]

    Dispersion                     -0.00097212 [mEh]      -0.00061002 [kcal/mol]      -0.00255231 [kJ/mol]
      Disp20                       -0.00097212 [mEh]      -0.00061002 [kcal/mol]      -0.00255231 [kJ/mol]
      Exch-Disp20                   0.00000000 [mEh]       0.00000000 [kcal/mol]       0.00000000 [kJ/mol]
      Disp20 (SS)                  -0.00048606 [mEh]      -0.00030501 [kcal/mol]      -0.00127616 [kJ/mol]
      Disp20 (OS)                  -0.00048606 [mEh]      -0.00030501 [kcal/mol]      -0.00127616 [kJ/mol]
      Exch-Disp20 (SS)              0.00000000 [mEh]       0.00000000 [kcal/mol]       0.00000000 [kJ/mol]
      Exch-Disp20 (OS)              0.00000000 [mEh]       0.00000000 [kcal/mol]       0.00000000 [kJ/mol]

  Total HF                         -0.01434698 [mEh]      -0.00900287 [kcal/mol]      -0.03766800 [kJ/mol]
  Total SAPT0                      -0.01531911 [mEh]      -0.00961288 [kcal/mol]      -0.04022031 [kJ/mol]

  Special recipe for scaled SAPT0 (see Manual):
    Electrostatics sSAPT0          -0.01438809 [mEh]      -0.00902866 [kcal/mol]      -0.03777593 [kJ/mol]
    Exchange sSAPT0                 0.00000000 [mEh]       0.00000000 [kcal/mol]       0.00000000 [kJ/mol]
    Induction sSAPT0                0.00004111 [mEh]       0.00002580 [kcal/mol]       0.00010793 [kJ/mol]
    Dispersion sSAPT0              -0.00097212 [mEh]      -0.00061002 [kcal/mol]      -0.00255231 [kJ/mol]
  Total sSAPT0                     -0.01531911 [mEh]      -0.00961288 [kcal/mol]      -0.04022031 [kJ/mol]
  --------------------------------------------------------------------------------------------------------

*** tstop() called on ds1 at Mon Oct  4 15:41:07 2021
Module time:
	user time   =      44.54 seconds =       0.74 minutes
	system time =       3.93 seconds =       0.07 minutes
	total time  =          9 seconds =       0.15 minutes
Total time:
	user time   =     101.58 seconds =       1.69 minutes
	system time =       5.45 seconds =       0.09 minutes
	total time  =         22 seconds =       0.37 minutes


Warning! sapt0 does not have an associated derived wavefunction.The returned wavefunction is the dimer SCF wavefunction.


    Psi4 stopped on: Monday, 04 October 2021 03:41PM
    Psi4 wall time for execution: 0:00:21.72

*** Psi4 exiting successfully. Buy a developer a beer!
