
    -----------------------------------------------------------------------
          Psi4: An Open-Source Ab Initio Electronic Structure Package
                               Psi4 1.4rc3 

                         Git: Rev {HEAD} 080dba6 


    D. G. A. Smith, L. A. Burns, A. C. Simmonett, R. M. Parrish,
    M. C. Schieber, R. Galvelis, P. Kraus, H. Kruse, R. Di Remigio,
    A. Alenaizan, A. M. James, S. Lehtola, J. P. Misiewicz, M. Scheurer,
    R. A. Shaw, J. B. Schriber, Y. Xie, Z. L. Glick, D. A. Sirianni,
    J. S. O'Brien, J. M. Waldrop, A. Kumar, E. G. Hohenstein,
    B. P. Pritchard, B. R. Brooks, H. F. Schaefer III, A. Yu. Sokolov,
    K. Patkowski, A. E. DePrince III, U. Bozkaya, R. A. King,
    F. A. Evangelista, J. M. Turney, T. D. Crawford, C. D. Sherrill,
    J. Chem. Phys. 152(18) 184108 (2020). https://doi.org/10.1063/5.0006002

                            Additional Code Authors
    E. T. Seidl, C. L. Janssen, E. F. Valeev, M. L. Leininger,
    J. F. Gonthier, R. M. Richard, H. R. McAlexander, M. Saitow, X. Wang,
    P. Verma, and M. H. Lechner

             Previous Authors, Complete List of Code Contributors,
                       and Citations for Specific Modules
    https://github.com/psi4/psi4/blob/master/codemeta.json
    https://github.com/psi4/psi4/graphs/contributors
    http://psicode.org/psi4manual/master/introduction.html#citing-psifour

    -----------------------------------------------------------------------


    Psi4 started on: Monday, 04 October 2021 02:54PM

    Process ID: 11508
    Host:       ds1
    PSIDATADIR: /theoryfs2/ds/csargent/miniconda3/envs/cle/share/psi4
    Memory:     500.0 MiB
    Threads:    6
    
  ==> Input File <==

--------------------------------------------------------------------------
# PSI4 file produced by CrystaLattE

# Generated from:               pyrazole.xyz
# Psithon input for N-mer:      2mer-0+233
# Number of atoms per monomer:  [9, 9]
# Number of replicas:           1
# COM priority:                 3.954520739282e-05
# Minimum COM separations:      15.532 
# Separation priority:          6.273700874640e-05
# Minimum monomer separations:  13.318 
# Cutoff priority:              2.492862994305e-06
# Nuclear repulsion energy:     377.2941770206131

memory 7 GB

molecule Dimer_0_233 {
  N            6.27981210      -4.25303372       0.19313865 
  N            6.06870777      -2.28125697       1.80544317 
  H            3.66871156      -5.64628941      -1.96684001 
  H            0.69034521      -2.37545694      -0.42864236 
  H            3.35917442       0.17650601       3.09265017 
  H            7.35266782      -1.99461311       2.90680702 
  C            3.77952586      -1.21508453       1.76858172 
  C            2.38242998      -2.55505538       0.04607681 
  C            4.01771468      -4.38410490      -0.88761863 
--
  N           26.01342381      14.29484620      -1.54178140 
  N           26.13228607      16.33275324      -0.00460768 
  H           28.68658654      11.89393623      -2.25981175 
  H           31.58122310      14.33647498       0.49532575 
  H           28.64479903      18.04952399       2.39996206 
  H           24.66987785      17.14273029       0.38115765 
  C           28.41512247      16.66292891       1.02444117 
  C           29.89811491      14.73325669       0.13451870 
  C           28.33680957      13.34808888      -1.45717925 
units = au
no_com
no_reorient
}

set {
  e_convergence 10
  d_convergence 10
  scf_type df
  mp2_type df
  cc_type df
  freeze_core true
}

energy('sapt0/aug-cc-pvdz')

--------------------------------------------------------------------------

  Memory set to   6.519 GiB by Python driver.

Scratch directory: /scratch/csargent/psi4.7158.66302/

Scratch directory: /scratch/csargent/psi4.7158.66302/

  //>>>>>>>>>>>>>>>>>>>>>>>>>>>>>>>>>>>//
  //              Dimer HF             //
  //<<<<<<<<<<<<<<<<<<<<<<<<<<<<<<<<<<<//


*** tstart() called on ds1
*** at Mon Oct  4 14:54:01 2021

   => Loading Basis Set <=

    Name: AUG-CC-PVDZ
    Role: ORBITAL
    Keyword: BASIS
    atoms 1-2, 10-11 entry N          line   218 file /theoryfs2/ds/csargent/miniconda3/envs/cle/share/psi4/basis/aug-cc-pvdz.gbs 
    atoms 3-6, 12-15 entry H          line    40 file /theoryfs2/ds/csargent/miniconda3/envs/cle/share/psi4/basis/aug-cc-pvdz.gbs 
    atoms 7-9, 16-18 entry C          line   182 file /theoryfs2/ds/csargent/miniconda3/envs/cle/share/psi4/basis/aug-cc-pvdz.gbs 


         ---------------------------------------------------------
                                   SCF
               by Justin Turney, Rob Parrish, Andy Simmonett
                          and Daniel G. A. Smith
                              RHF Reference
                        6 Threads,   6675 MiB Core
         ---------------------------------------------------------

  ==> Geometry <==

    Molecular point group: c1
    Full point group: C1

    Geometry (in Bohr), charge = 0, multiplicity = 1:

       Center              X                  Y                   Z               Mass       
    ------------   -----------------  -----------------  -----------------  -----------------
         N            6.279812100000    -4.253033720000     0.193138650000    14.003074004430
         N            6.068707770000    -2.281256970000     1.805443170000    14.003074004430
         H            3.668711560000    -5.646289410000    -1.966840010000     1.007825032230
         H            0.690345210000    -2.375456940000    -0.428642360000     1.007825032230
         H            3.359174420000     0.176506010000     3.092650170000     1.007825032230
         H            7.352667820000    -1.994613110000     2.906807020000     1.007825032230
         C            3.779525860000    -1.215084530000     1.768581720000    12.000000000000
         C            2.382429980000    -2.555055380000     0.046076810000    12.000000000000
         C            4.017714680000    -4.384104900000    -0.887618630000    12.000000000000
         N           26.013423810000    14.294846200000    -1.541781400000    14.003074004430
         N           26.132286070000    16.332753240000    -0.004607680000    14.003074004430
         H           28.686586540000    11.893936230000    -2.259811750000     1.007825032230
         H           31.581223100000    14.336474980000     0.495325750000     1.007825032230
         H           28.644799030000    18.049523990000     2.399962060000     1.007825032230
         H           24.669877850000    17.142730290000     0.381157650000     1.007825032230
         C           28.415122470000    16.662928910000     1.024441170000    12.000000000000
         C           29.898114910000    14.733256690000     0.134518700000    12.000000000000
         C           28.336809570000    13.348088880000    -1.457179250000    12.000000000000

  Running in c1 symmetry.

  Rotational constants: A =      0.02966  B =      0.00088  C =      0.00086 [cm^-1]
  Rotational constants: A =    889.29088  B =     26.29149  C =     25.67321 [MHz]
  Nuclear repulsion =  377.294176971458228

  Charge       = 0
  Multiplicity = 1
  Electrons    = 72
  Nalpha       = 36
  Nbeta        = 36

  ==> Algorithm <==

  SCF Algorithm Type is DF.
  DIIS enabled.
  MOM disabled.
  Fractional occupation disabled.
  Guess Type is SAD.
  Energy threshold   = 1.00e-10
  Density threshold  = 1.00e-10
  Integral threshold = 1.00e-12

  ==> Primary Basis <==

  Basis Set: AUG-CC-PVDZ
    Blend: AUG-CC-PVDZ
    Number of shells: 130
    Number of basis functions: 302
    Number of Cartesian functions: 322
    Spherical Harmonics?: true
    Max angular momentum: 2

   => Loading Basis Set <=

    Name: (AUG-CC-PVDZ AUX)
    Role: JKFIT
    Keyword: DF_BASIS_SCF
    atoms 1-2, 10-11 entry N          line   212 file /theoryfs2/ds/csargent/miniconda3/envs/cle/share/psi4/basis/aug-cc-pvdz-jkfit.gbs 
    atoms 3-6, 12-15 entry H          line    70 file /theoryfs2/ds/csargent/miniconda3/envs/cle/share/psi4/basis/aug-cc-pvdz-jkfit.gbs 
    atoms 7-9, 16-18 entry C          line   154 file /theoryfs2/ds/csargent/miniconda3/envs/cle/share/psi4/basis/aug-cc-pvdz-jkfit.gbs 

  ==> Integral Setup <==

  ==> DiskDFJK: Density-Fitted J/K Matrices <==

    J tasked:                  Yes
    K tasked:                  Yes
    wK tasked:                  No
    OpenMP threads:              6
    Integrals threads:           6
    Memory [MiB]:             5006
    Algorithm:                Core
    Integral Cache:           SAVE
    Schwarz Cutoff:          1E-12
    Fitting Condition:       1E-10

   => Auxiliary Basis Set <=

  Basis Set: (AUG-CC-PVDZ AUX)
    Blend: AUG-CC-PVDZ-JKFIT
    Number of shells: 376
    Number of basis functions: 1116
    Number of Cartesian functions: 1290
    Spherical Harmonics?: true
    Max angular momentum: 3

  Minimum eigenvalue in the overlap matrix is 3.0324463828E-05.
  Reciprocal condition number of the overlap matrix is 2.4867192988E-06.
    Using symmetric orthogonalization.

  ==> Pre-Iterations <==

  SCF Guess: Superposition of Atomic Densities via on-the-fly atomic UHF (no occupation information).

   -------------------------
    Irrep   Nso     Nmo    
   -------------------------
     A        302     302 
   -------------------------
    Total     302     302
   -------------------------

  ==> Iterations <==

                           Total Energy        Delta E     RMS |[F,P]|

   @DF-RHF iter SAD:  -449.44445655831777   -4.49444e+02   0.00000e+00 
   @DF-RHF iter   1:  -449.27100415857495    1.73452e-01   2.12822e-03 DIIS
   @DF-RHF iter   2:  -449.47973317861835   -2.08729e-01   9.73931e-04 DIIS
   @DF-RHF iter   3:  -449.52157610902213   -4.18429e-02   2.10264e-04 DIIS
   @DF-RHF iter   4:  -449.52434588602603   -2.76978e-03   8.56540e-05 DIIS
   @DF-RHF iter   5:  -449.52470298887681   -3.57103e-04   1.69506e-05 DIIS
   @DF-RHF iter   6:  -449.52473688171517   -3.38928e-05   7.02236e-06 DIIS
   @DF-RHF iter   7:  -449.52474478558202   -7.90387e-06   3.09280e-06 DIIS
   @DF-RHF iter   8:  -449.52474630619167   -1.52061e-06   1.43796e-06 DIIS
   @DF-RHF iter   9:  -449.52474664134377   -3.35152e-07   4.01022e-07 DIIS
   @DF-RHF iter  10:  -449.52474665900769   -1.76639e-08   1.21039e-07 DIIS
   @DF-RHF iter  11:  -449.52474666038938   -1.38169e-09   2.82649e-08 DIIS
   @DF-RHF iter  12:  -449.52474666048187   -9.24842e-11   8.22864e-09 DIIS
   @DF-RHF iter  13:  -449.52474666048994   -8.07177e-12   4.01547e-09 DIIS
   @DF-RHF iter  14:  -449.52474666049204   -2.10321e-12   1.38654e-09 DIIS
   @DF-RHF iter  15:  -449.52474666049204    0.00000e+00   5.90568e-10 DIIS
   @DF-RHF iter  16:  -449.52474666049210   -5.68434e-14   1.80972e-10 DIIS
   @DF-RHF iter  17:  -449.52474666049250   -3.97904e-13   6.58773e-11 DIIS
  Energy and wave function converged.


  ==> Post-Iterations <==

    Orbital Energies [Eh]
    ---------------------

    Doubly Occupied:                                                      

       1A    -15.636359     2A    -15.635432     3A    -15.592389  
       4A    -15.591528     5A    -11.280026     6A    -11.279131  
       7A    -11.237842     8A    -11.237005     9A    -11.209989  
      10A    -11.209138    11A     -1.387120    12A     -1.386130  
      13A     -1.122004    14A     -1.121114    15A     -1.067039  
      16A     -1.066130    17A     -0.872866    18A     -0.871989  
      19A     -0.837135    20A     -0.836294    21A     -0.757393  
      22A     -0.756533    23A     -0.645850    24A     -0.644970  
      25A     -0.620926    26A     -0.620071    27A     -0.609298  
      28A     -0.608345    29A     -0.584012    30A     -0.583161  
      31A     -0.461510    32A     -0.460609    33A     -0.370816  
      34A     -0.369935    35A     -0.346168    36A     -0.345274  

    Virtual:                                                              

      37A      0.030492    38A      0.031463    39A      0.042371  
      40A      0.042989    41A      0.049033    42A      0.049925  
      43A      0.063462    44A      0.064214    45A      0.100811  
      46A      0.101766    47A      0.103950    48A      0.104799  
      49A      0.117166    50A      0.117923    51A      0.126156  
      52A      0.127100    53A      0.132931    54A      0.133763  
      55A      0.138354    56A      0.139116    57A      0.141446  
      58A      0.142105    59A      0.156811    60A      0.157549  
      61A      0.164569    62A      0.165249    63A      0.170957  
      64A      0.171876    65A      0.178354    66A      0.179149  
      67A      0.195845    68A      0.196902    69A      0.204649  
      70A      0.205615    71A      0.206030    72A      0.206992  
      73A      0.240176    74A      0.240995    75A      0.243517  
      76A      0.244437    77A      0.244890    78A      0.245763  
      79A      0.271050    80A      0.271931    81A      0.278915  
      82A      0.279883    83A      0.301056    84A      0.301802  
      85A      0.325004    86A      0.325946    87A      0.352222  
      88A      0.353116    89A      0.355293    90A      0.356096  
      91A      0.374776    92A      0.375645    93A      0.395948  
      94A      0.396775    95A      0.402625    96A      0.403506  
      97A      0.414926    98A      0.415688    99A      0.431982  
     100A      0.432939   101A      0.443341   102A      0.444161  
     103A      0.453316   104A      0.454174   105A      0.459740  
     106A      0.460541   107A      0.478489   108A      0.479457  
     109A      0.498464   110A      0.499298   111A      0.508608  
     112A      0.509447   113A      0.521827   114A      0.522656  
     115A      0.541475   116A      0.542314   117A      0.574289  
     118A      0.575215   119A      0.586201   120A      0.587078  
     121A      0.590436   122A      0.591287   123A      0.602307  
     124A      0.603179   125A      0.620879   126A      0.621704  
     127A      0.646019   128A      0.646862   129A      0.655214  
     130A      0.656017   131A      0.676063   132A      0.676918  
     133A      0.697954   134A      0.698794   135A      0.700274  
     136A      0.701155   137A      0.721553   138A      0.722430  
     139A      0.725000   140A      0.725863   141A      0.747618  
     142A      0.748470   143A      0.758559   144A      0.759352  
     145A      0.773197   146A      0.774095   147A      0.781343  
     148A      0.782283   149A      0.828432   150A      0.829291  
     151A      0.838112   152A      0.838996   153A      0.848300  
     154A      0.849136   155A      0.881312   156A      0.882156  
     157A      0.888645   158A      0.889522   159A      0.906854  
     160A      0.907720   161A      0.924682   162A      0.925604  
     163A      0.942497   164A      0.943369   165A      0.978113  
     166A      0.978979   167A      0.984750   168A      0.985615  
     169A      1.011087   170A      1.011954   171A      1.046513  
     172A      1.047410   173A      1.066405   174A      1.067264  
     175A      1.100721   176A      1.101647   177A      1.128007  
     178A      1.128823   179A      1.134041   180A      1.134976  
     181A      1.150130   182A      1.150986   183A      1.175072  
     184A      1.175938   185A      1.220445   186A      1.221328  
     187A      1.269470   188A      1.270330   189A      1.303291  
     190A      1.304134   191A      1.311317   192A      1.312180  
     193A      1.365685   194A      1.366607   195A      1.400950  
     196A      1.401799   197A      1.474587   198A      1.475498  
     199A      1.511893   200A      1.512818   201A      1.526042  
     202A      1.526890   203A      1.560882   204A      1.561760  
     205A      1.590778   206A      1.591631   207A      1.608583  
     208A      1.609429   209A      1.637336   210A      1.638180  
     211A      1.669390   212A      1.670230   213A      1.703523  
     214A      1.704397   215A      1.723848   216A      1.724726  
     217A      1.749156   218A      1.749989   219A      1.764255  
     220A      1.765148   221A      1.804930   222A      1.805820  
     223A      1.875470   224A      1.876386   225A      1.932303  
     226A      1.933162   227A      1.943462   228A      1.944305  
     229A      1.988057   230A      1.988826   231A      2.021353  
     232A      2.022219   233A      2.057554   234A      2.058379  
     235A      2.088688   236A      2.089614   237A      2.144601  
     238A      2.145460   239A      2.189889   240A      2.190769  
     241A      2.200736   242A      2.201590   243A      2.230334  
     244A      2.231236   245A      2.275749   246A      2.276584  
     247A      2.307516   248A      2.308421   249A      2.360554  
     250A      2.361479   251A      2.389015   252A      2.389904  
     253A      2.393609   254A      2.394625   255A      2.435079  
     256A      2.436046   257A      2.464798   258A      2.465768  
     259A      2.531675   260A      2.532580   261A      2.570087  
     262A      2.571009   263A      2.584686   264A      2.585509  
     265A      2.642842   266A      2.643739   267A      2.732884  
     268A      2.733801   269A      2.826709   270A      2.827617  
     271A      2.834605   272A      2.835530   273A      2.901427  
     274A      2.902371   275A      2.918434   276A      2.919392  
     277A      2.999082   278A      2.999932   279A      3.055194  
     280A      3.056101   281A      3.092334   282A      3.093152  
     283A      3.122593   284A      3.123507   285A      3.188922  
     286A      3.189709   287A      3.221925   288A      3.222779  
     289A      3.297816   290A      3.298650   291A      3.380104  
     292A      3.380994   293A      3.520651   294A      3.521514  
     295A      3.686196   296A      3.687330   297A      3.889131  
     298A      3.890120   299A      4.209210   300A      4.210219  
     301A      4.462934   302A      4.463993  

    Final Occupation by Irrep:
              A 
    DOCC [    36 ]

  @DF-RHF Final Energy:  -449.52474666049250

   => Energetics <=

    Nuclear Repulsion Energy =            377.2941769714582279
    One-Electron Energy =               -1355.1147854484511299
    Two-Electron Energy =                 528.2958618165004054
    Total Energy =                       -449.5247466604924966

Computation Completed


Properties will be evaluated at   0.000000,   0.000000,   0.000000 [a0]

Properties computed using the SCF density matrix

  Nuclear Dipole Moment: [e a0]
     X:  1161.0913      Y:   439.7762      Z:    11.5589

  Electronic Dipole Moment: [e a0]
     X: -1161.1998      Y:  -438.5809      Z:   -10.2785

  Dipole Moment: [e a0]
     X:    -0.1085      Y:     1.1952      Z:     1.2803     Total:     1.7549

  Dipole Moment: [D]
     X:    -0.2759      Y:     3.0380      Z:     3.2543     Total:     4.4605


*** tstop() called on ds1 at Mon Oct  4 14:54:06 2021
Module time:
	user time   =      23.27 seconds =       0.39 minutes
	system time =       0.62 seconds =       0.01 minutes
	total time  =          5 seconds =       0.08 minutes
Total time:
	user time   =      23.27 seconds =       0.39 minutes
	system time =       0.62 seconds =       0.01 minutes
	total time  =          5 seconds =       0.08 minutes

  //>>>>>>>>>>>>>>>>>>>>>>>>>>>>>>>>>>>//
  //            Monomer A HF           //
  //<<<<<<<<<<<<<<<<<<<<<<<<<<<<<<<<<<<//


*** tstart() called on ds1
*** at Mon Oct  4 14:54:06 2021

   => Loading Basis Set <=

    Name: AUG-CC-PVDZ
    Role: ORBITAL
    Keyword: BASIS
    atoms 1-2, 10-11 entry N          line   218 file /theoryfs2/ds/csargent/miniconda3/envs/cle/share/psi4/basis/aug-cc-pvdz.gbs 
    atoms 3-6, 12-15 entry H          line    40 file /theoryfs2/ds/csargent/miniconda3/envs/cle/share/psi4/basis/aug-cc-pvdz.gbs 
    atoms 7-9, 16-18 entry C          line   182 file /theoryfs2/ds/csargent/miniconda3/envs/cle/share/psi4/basis/aug-cc-pvdz.gbs 


         ---------------------------------------------------------
                                   SCF
               by Justin Turney, Rob Parrish, Andy Simmonett
                          and Daniel G. A. Smith
                              RHF Reference
                        6 Threads,   6675 MiB Core
         ---------------------------------------------------------

  ==> Geometry <==

    Molecular point group: c1
    Full point group: C1

    Geometry (in Bohr), charge = 0, multiplicity = 1:

       Center              X                  Y                   Z               Mass       
    ------------   -----------------  -----------------  -----------------  -----------------
         N            6.279812100000    -4.253033720000     0.193138650000    14.003074004430
         N            6.068707770000    -2.281256970000     1.805443170000    14.003074004430
         H            3.668711560000    -5.646289410000    -1.966840010000     1.007825032230
         H            0.690345210000    -2.375456940000    -0.428642360000     1.007825032230
         H            3.359174420000     0.176506010000     3.092650170000     1.007825032230
         H            7.352667820000    -1.994613110000     2.906807020000     1.007825032230
         C            3.779525860000    -1.215084530000     1.768581720000    12.000000000000
         C            2.382429980000    -2.555055380000     0.046076810000    12.000000000000
         C            4.017714680000    -4.384104900000    -0.887618630000    12.000000000000
      Gh(N)          26.013423810000    14.294846200000    -1.541781400000    14.003074004430
      Gh(N)          26.132286070000    16.332753240000    -0.004607680000    14.003074004430
      Gh(H)          28.686586540000    11.893936230000    -2.259811750000     1.007825032230
      Gh(H)          31.581223100000    14.336474980000     0.495325750000     1.007825032230
      Gh(H)          28.644799030000    18.049523990000     2.399962060000     1.007825032230
      Gh(H)          24.669877850000    17.142730290000     0.381157650000     1.007825032230
      Gh(C)          28.415122470000    16.662928910000     1.024441170000    12.000000000000
      Gh(C)          29.898114910000    14.733256690000     0.134518700000    12.000000000000
      Gh(C)          28.336809570000    13.348088880000    -1.457179250000    12.000000000000

  Running in c1 symmetry.

  Rotational constants: A =      0.02966  B =      0.00088  C =      0.00086 [cm^-1]
  Rotational constants: A =    889.29088  B =     26.29149  C =     25.67321 [MHz]
  Nuclear repulsion =  166.624056450327203

  Charge       = 0
  Multiplicity = 1
  Electrons    = 36
  Nalpha       = 18
  Nbeta        = 18

  ==> Algorithm <==

  SCF Algorithm Type is DF.
  DIIS enabled.
  MOM disabled.
  Fractional occupation disabled.
  Guess Type is SAD.
  Energy threshold   = 1.00e-10
  Density threshold  = 1.00e-10
  Integral threshold = 1.00e-12

  ==> Primary Basis <==

  Basis Set: AUG-CC-PVDZ
    Blend: AUG-CC-PVDZ
    Number of shells: 130
    Number of basis functions: 302
    Number of Cartesian functions: 322
    Spherical Harmonics?: true
    Max angular momentum: 2

   => Loading Basis Set <=

    Name: (AUG-CC-PVDZ AUX)
    Role: JKFIT
    Keyword: DF_BASIS_SCF
    atoms 1-2, 10-11 entry N          line   212 file /theoryfs2/ds/csargent/miniconda3/envs/cle/share/psi4/basis/aug-cc-pvdz-jkfit.gbs 
    atoms 3-6, 12-15 entry H          line    70 file /theoryfs2/ds/csargent/miniconda3/envs/cle/share/psi4/basis/aug-cc-pvdz-jkfit.gbs 
    atoms 7-9, 16-18 entry C          line   154 file /theoryfs2/ds/csargent/miniconda3/envs/cle/share/psi4/basis/aug-cc-pvdz-jkfit.gbs 

  ==> Integral Setup <==

  ==> DiskDFJK: Density-Fitted J/K Matrices <==

    J tasked:                  Yes
    K tasked:                  Yes
    wK tasked:                  No
    OpenMP threads:              6
    Integrals threads:           6
    Memory [MiB]:             5006
    Algorithm:                Core
    Integral Cache:           LOAD
    Schwarz Cutoff:          1E-12
    Fitting Condition:       1E-10

   => Auxiliary Basis Set <=

  Basis Set: (AUG-CC-PVDZ AUX)
    Blend: AUG-CC-PVDZ-JKFIT
    Number of shells: 376
    Number of basis functions: 1116
    Number of Cartesian functions: 1290
    Spherical Harmonics?: true
    Max angular momentum: 3

  Minimum eigenvalue in the overlap matrix is 3.0324463828E-05.
  Reciprocal condition number of the overlap matrix is 2.4867192988E-06.
    Using symmetric orthogonalization.

  ==> Pre-Iterations <==

  SCF Guess: Superposition of Atomic Densities via on-the-fly atomic UHF (no occupation information).

   -------------------------
    Irrep   Nso     Nmo    
   -------------------------
     A        302     302 
   -------------------------
    Total     302     302
   -------------------------

  ==> Iterations <==

                           Total Energy        Delta E     RMS |[F,P]|

   @DF-RHF iter SAD:  -224.72194801358975   -2.24722e+02   0.00000e+00 
   @DF-RHF iter   1:  -224.63549170235859    8.64563e-02   1.50472e-03 DIIS
   @DF-RHF iter   2:  -224.73984613528421   -1.04354e-01   6.88462e-04 DIIS
   @DF-RHF iter   3:  -224.76075487412189   -2.09087e-02   1.48626e-04 DIIS
   @DF-RHF iter   4:  -224.76213931791452   -1.38444e-03   6.05310e-05 DIIS
   @DF-RHF iter   5:  -224.76231767267419   -1.78355e-04   1.19893e-05 DIIS
   @DF-RHF iter   6:  -224.76233463014901   -1.69575e-05   4.96772e-06 DIIS
   @DF-RHF iter   7:  -224.76233858618656   -3.95604e-06   2.18806e-06 DIIS
   @DF-RHF iter   8:  -224.76233934692874   -7.60742e-07   1.01700e-06 DIIS
   @DF-RHF iter   9:  -224.76233951457104   -1.67642e-07   2.83302e-07 DIIS
   @DF-RHF iter  10:  -224.76233952339146   -8.82042e-09   8.55547e-08 DIIS
   @DF-RHF iter  11:  -224.76233952408148   -6.90022e-10   1.99714e-08 DIIS
   @DF-RHF iter  12:  -224.76233952412713   -4.56453e-11   5.81092e-09 DIIS
   @DF-RHF iter  13:  -224.76233952413139   -4.26326e-12   2.83097e-09 DIIS
   @DF-RHF iter  14:  -224.76233952413250   -1.10845e-12   9.75191e-10 DIIS
   @DF-RHF iter  15:  -224.76233952413261   -1.13687e-13   4.15548e-10 DIIS
   @DF-RHF iter  16:  -224.76233952413259    2.84217e-14   1.25998e-10 DIIS
   @DF-RHF iter  17:  -224.76233952413236    2.27374e-13   4.47781e-11 DIIS
  Energy and wave function converged.


  ==> Post-Iterations <==

    Orbital Energies [Eh]
    ---------------------

    Doubly Occupied:                                                      

       1A    -15.636223     2A    -15.592313     3A    -11.279894  
       4A    -11.237784     5A    -11.209891     6A     -1.386922  
       7A     -1.121901     8A     -1.066898     9A     -0.872768  
      10A     -0.837061    11A     -0.757292    12A     -0.645746  
      13A     -0.620834    14A     -0.609140    15A     -0.583920  
      16A     -0.461404    17A     -0.370721    18A     -0.346048  

    Virtual:                                                              

      19A      0.022599    20A      0.030763    21A      0.040008  
      22A      0.042366    23A      0.044044    24A      0.049161  
      25A      0.063519    26A      0.065773    27A      0.083895  
      28A      0.090701    29A      0.098928    30A      0.100998  
      31A      0.104029    32A      0.117179    33A      0.118336  
      34A      0.125802    35A      0.126267    36A      0.128178  
      37A      0.133046    38A      0.133337    39A      0.134061  
      40A      0.138403    41A      0.141490    42A      0.156889  
      43A      0.158575    44A      0.164592    45A      0.165879  
      46A      0.171075    47A      0.178407    48A      0.179102  
      49A      0.195384    50A      0.196045    51A      0.201405  
      52A      0.204793    53A      0.206162    54A      0.222859  
      55A      0.225123    56A      0.228241    57A      0.235479  
      58A      0.240236    59A      0.243626    60A      0.244965  
      61A      0.264082    62A      0.270887    63A      0.271127  
      64A      0.279081    65A      0.301010    66A      0.321923  
      67A      0.325148    68A      0.340010    69A      0.352358  
      70A      0.355357    71A      0.366506    72A      0.372888  
      73A      0.374907    74A      0.383681    75A      0.396061  
      76A      0.402741    77A      0.414998    78A      0.427367  
      79A      0.432028    80A      0.432133    81A      0.441141  
      82A      0.442272    83A      0.443385    84A      0.453393  
      85A      0.455921    86A      0.457391    87A      0.459816  
      88A      0.461808    89A      0.478655    90A      0.498543  
      91A      0.508690    92A      0.509651    93A      0.519319  
      94A      0.521917    95A      0.533016    96A      0.538049  
      97A      0.541561    98A      0.559265    99A      0.568682  
     100A      0.571822   101A      0.574435   102A      0.586319  
     103A      0.590538   104A      0.595132   105A      0.602413  
     106A      0.613358   107A      0.620952   108A      0.621209  
     109A      0.633485   110A      0.646110   111A      0.655295  
     112A      0.676162   113A      0.690806   114A      0.698041  
     115A      0.700391   116A      0.707785   117A      0.719394  
     118A      0.721667   119A      0.725115   120A      0.735608  
     121A      0.745362   122A      0.747709   123A      0.758592  
     124A      0.773318   125A      0.781481   126A      0.789693  
     127A      0.798043   128A      0.814427   129A      0.820919  
     130A      0.828504   131A      0.838230   132A      0.848394  
     133A      0.851926   134A      0.855044   135A      0.870997  
     136A      0.881060   137A      0.881395   138A      0.888767  
     139A      0.895660   140A      0.906950   141A      0.916112  
     142A      0.924815   143A      0.942582   144A      0.952083  
     145A      0.978222   146A      0.984850   147A      0.997169  
     148A      1.011149   149A      1.024193   150A      1.030218  
     151A      1.046606   152A      1.051611   153A      1.066503  
     154A      1.071111   155A      1.081048   156A      1.100852  
     157A      1.108195   158A      1.128058   159A      1.134196  
     160A      1.150235   161A      1.158788   162A      1.166343  
     163A      1.175168   164A      1.185014   165A      1.220548  
     166A      1.221724   167A      1.237063   168A      1.268010  
     169A      1.269556   170A      1.293763   171A      1.303342  
     172A      1.311399   173A      1.315202   174A      1.340741  
     175A      1.365807   176A      1.381913   177A      1.401043  
     178A      1.435035   179A      1.444774   180A      1.474691  
     181A      1.493226   182A      1.507103   183A      1.512027  
     184A      1.526129   185A      1.560989   186A      1.590882  
     187A      1.608669   188A      1.637437   189A      1.669472  
     190A      1.676764   191A      1.688936   192A      1.703634  
     193A      1.723950   194A      1.749215   195A      1.764373  
     196A      1.805048   197A      1.875632   198A      1.932390  
     199A      1.943558   200A      1.988067   201A      2.021445  
     202A      2.041163   203A      2.057611   204A      2.088839  
     205A      2.109119   206A      2.134890   207A      2.144687  
     208A      2.168195   209A      2.190005   210A      2.200827  
     211A      2.216689   212A      2.230457   213A      2.233954  
     214A      2.261956   215A      2.275825   216A      2.277846  
     217A      2.289341   218A      2.307640   219A      2.335712  
     220A      2.360716   221A      2.380730   222A      2.389130  
     223A      2.393822   224A      2.394590   225A      2.435246  
     226A      2.443926   227A      2.464967   228A      2.478385  
     229A      2.500042   230A      2.513668   231A      2.531798  
     232A      2.548887   233A      2.570232   234A      2.584716  
     235A      2.631410   236A      2.642961   237A      2.667580  
     238A      2.703067   239A      2.718953   240A      2.733029  
     241A      2.826837   242A      2.828043   243A      2.834751  
     244A      2.869831   245A      2.890096   246A      2.901587  
     247A      2.918598   248A      2.945179   249A      2.999158  
     250A      3.028055   251A      3.055324   252A      3.089821  
     253A      3.092358   254A      3.122730   255A      3.140125  
     256A      3.181957   257A      3.188930   258A      3.222008  
     259A      3.254229   260A      3.289215   261A      3.297865  
     262A      3.355727   263A      3.380236   264A      3.395708  
     265A      3.423437   266A      3.448311   267A      3.487289  
     268A      3.497635   269A      3.520727   270A      3.633726  
     271A      3.667036   272A      3.686563   273A      3.735718  
     274A      3.770192   275A      3.851167   276A      3.889327  
     277A      3.964626   278A      4.035708   279A      4.094839  
     280A      4.209428   281A      4.244147   282A      4.448348  
     283A      4.463235   284A      4.658576   285A      4.708219  
     286A      4.750032   287A      4.810912   288A      4.994942  
     289A      5.076798   290A      5.241327   291A      5.531571  
     292A      5.669096   293A      5.826721   294A      6.107119  
     295A      6.318309   296A      6.707698   297A      6.967576  
     298A     18.111292   299A     18.648174   300A     19.373784  
     301A     25.245532   302A     25.705385  

    Final Occupation by Irrep:
              A 
    DOCC [    18 ]

  @DF-RHF Final Energy:  -224.76233952413236

   => Energetics <=

    Nuclear Repulsion Energy =            166.6240564503272026
    One-Electron Energy =                -633.4992733971397456
    Two-Electron Energy =                 242.1128774226801852
    Total Energy =                       -224.7623395241323578

Computation Completed


Properties will be evaluated at   0.000000,   0.000000,   0.000000 [a0]

Properties computed using the SCF density matrix

  Nuclear Dipole Moment: [e a0]
     X:   162.5886      Y:  -104.5054      Z:    23.1563

  Electronic Dipole Moment: [e a0]
     X:  -162.9913      Y:   105.1370      Z:   -22.5767

  Dipole Moment: [e a0]
     X:    -0.4027      Y:     0.6317      Z:     0.5796     Total:     0.9472

  Dipole Moment: [D]
     X:    -1.0235      Y:     1.6055      Z:     1.4733     Total:     2.4075


*** tstop() called on ds1 at Mon Oct  4 14:54:09 2021
Module time:
	user time   =      16.56 seconds =       0.28 minutes
	system time =       0.32 seconds =       0.01 minutes
	total time  =          3 seconds =       0.05 minutes
Total time:
	user time   =      40.01 seconds =       0.67 minutes
	system time =       0.94 seconds =       0.02 minutes
	total time  =          8 seconds =       0.13 minutes

  //>>>>>>>>>>>>>>>>>>>>>>>>>>>>>>>>>>>//
  //            Monomer B HF           //
  //<<<<<<<<<<<<<<<<<<<<<<<<<<<<<<<<<<<//


*** tstart() called on ds1
*** at Mon Oct  4 14:54:09 2021

   => Loading Basis Set <=

    Name: AUG-CC-PVDZ
    Role: ORBITAL
    Keyword: BASIS
    atoms 1-2, 10-11 entry N          line   218 file /theoryfs2/ds/csargent/miniconda3/envs/cle/share/psi4/basis/aug-cc-pvdz.gbs 
    atoms 3-6, 12-15 entry H          line    40 file /theoryfs2/ds/csargent/miniconda3/envs/cle/share/psi4/basis/aug-cc-pvdz.gbs 
    atoms 7-9, 16-18 entry C          line   182 file /theoryfs2/ds/csargent/miniconda3/envs/cle/share/psi4/basis/aug-cc-pvdz.gbs 


         ---------------------------------------------------------
                                   SCF
               by Justin Turney, Rob Parrish, Andy Simmonett
                          and Daniel G. A. Smith
                              RHF Reference
                        6 Threads,   6675 MiB Core
         ---------------------------------------------------------

  ==> Geometry <==

    Molecular point group: c1
    Full point group: C1

    Geometry (in Bohr), charge = 0, multiplicity = 1:

       Center              X                  Y                   Z               Mass       
    ------------   -----------------  -----------------  -----------------  -----------------
      Gh(N)           6.279812100000    -4.253033720000     0.193138650000    14.003074004430
      Gh(N)           6.068707770000    -2.281256970000     1.805443170000    14.003074004430
      Gh(H)           3.668711560000    -5.646289410000    -1.966840010000     1.007825032230
      Gh(H)           0.690345210000    -2.375456940000    -0.428642360000     1.007825032230
      Gh(H)           3.359174420000     0.176506010000     3.092650170000     1.007825032230
      Gh(H)           7.352667820000    -1.994613110000     2.906807020000     1.007825032230
      Gh(C)           3.779525860000    -1.215084530000     1.768581720000    12.000000000000
      Gh(C)           2.382429980000    -2.555055380000     0.046076810000    12.000000000000
      Gh(C)           4.017714680000    -4.384104900000    -0.887618630000    12.000000000000
         N           26.013423810000    14.294846200000    -1.541781400000    14.003074004430
         N           26.132286070000    16.332753240000    -0.004607680000    14.003074004430
         H           28.686586540000    11.893936230000    -2.259811750000     1.007825032230
         H           31.581223100000    14.336474980000     0.495325750000     1.007825032230
         H           28.644799030000    18.049523990000     2.399962060000     1.007825032230
         H           24.669877850000    17.142730290000     0.381157650000     1.007825032230
         C           28.415122470000    16.662928910000     1.024441170000    12.000000000000
         C           29.898114910000    14.733256690000     0.134518700000    12.000000000000
         C           28.336809570000    13.348088880000    -1.457179250000    12.000000000000

  Running in c1 symmetry.

  Rotational constants: A =      0.02966  B =      0.00088  C =      0.00086 [cm^-1]
  Rotational constants: A =    889.29088  B =     26.29149  C =     25.67321 [MHz]
  Nuclear repulsion =  166.628602767497711

  Charge       = 0
  Multiplicity = 1
  Electrons    = 36
  Nalpha       = 18
  Nbeta        = 18

  ==> Algorithm <==

  SCF Algorithm Type is DF.
  DIIS enabled.
  MOM disabled.
  Fractional occupation disabled.
  Guess Type is SAD.
  Energy threshold   = 1.00e-10
  Density threshold  = 1.00e-10
  Integral threshold = 1.00e-12

  ==> Primary Basis <==

  Basis Set: AUG-CC-PVDZ
    Blend: AUG-CC-PVDZ
    Number of shells: 130
    Number of basis functions: 302
    Number of Cartesian functions: 322
    Spherical Harmonics?: true
    Max angular momentum: 2

   => Loading Basis Set <=

    Name: (AUG-CC-PVDZ AUX)
    Role: JKFIT
    Keyword: DF_BASIS_SCF
    atoms 1-2, 10-11 entry N          line   212 file /theoryfs2/ds/csargent/miniconda3/envs/cle/share/psi4/basis/aug-cc-pvdz-jkfit.gbs 
    atoms 3-6, 12-15 entry H          line    70 file /theoryfs2/ds/csargent/miniconda3/envs/cle/share/psi4/basis/aug-cc-pvdz-jkfit.gbs 
    atoms 7-9, 16-18 entry C          line   154 file /theoryfs2/ds/csargent/miniconda3/envs/cle/share/psi4/basis/aug-cc-pvdz-jkfit.gbs 

  ==> Integral Setup <==

  ==> DiskDFJK: Density-Fitted J/K Matrices <==

    J tasked:                  Yes
    K tasked:                  Yes
    wK tasked:                  No
    OpenMP threads:              6
    Integrals threads:           6
    Memory [MiB]:             5006
    Algorithm:                Core
    Integral Cache:           LOAD
    Schwarz Cutoff:          1E-12
    Fitting Condition:       1E-10

   => Auxiliary Basis Set <=

  Basis Set: (AUG-CC-PVDZ AUX)
    Blend: AUG-CC-PVDZ-JKFIT
    Number of shells: 376
    Number of basis functions: 1116
    Number of Cartesian functions: 1290
    Spherical Harmonics?: true
    Max angular momentum: 3

  Minimum eigenvalue in the overlap matrix is 3.0324463828E-05.
  Reciprocal condition number of the overlap matrix is 2.4867192988E-06.
    Using symmetric orthogonalization.

  ==> Pre-Iterations <==

  SCF Guess: Superposition of Atomic Densities via on-the-fly atomic UHF (no occupation information).

   -------------------------
    Irrep   Nso     Nmo    
   -------------------------
     A        302     302 
   -------------------------
    Total     302     302
   -------------------------

  ==> Iterations <==

                           Total Energy        Delta E     RMS |[F,P]|

   @DF-RHF iter SAD:  -224.72250854396623   -2.24723e+02   0.00000e+00 
   @DF-RHF iter   1:  -224.63556596234719    8.69426e-02   1.50490e-03 DIIS
   @DF-RHF iter   2:  -224.73993305023538   -1.04367e-01   6.88620e-04 DIIS
   @DF-RHF iter   3:  -224.76085080367844   -2.09178e-02   1.48614e-04 DIIS
   @DF-RHF iter   4:  -224.76223500235420   -1.38420e-03   6.05151e-05 DIIS
   @DF-RHF iter   5:  -224.76241324685827   -1.78245e-04   1.19848e-05 DIIS
   @DF-RHF iter   6:  -224.76243018000719   -1.69331e-05   4.96323e-06 DIIS
   @DF-RHF iter   7:  -224.76243412785050   -3.94784e-06   2.18627e-06 DIIS
   @DF-RHF iter   8:  -224.76243488738919   -7.59539e-07   1.01631e-06 DIIS
   @DF-RHF iter   9:  -224.76243505489441   -1.67505e-07   2.83280e-07 DIIS
   @DF-RHF iter  10:  -224.76243506371208   -8.81766e-09   8.55270e-08 DIIS
   @DF-RHF iter  11:  -224.76243506440144   -6.89369e-10   1.99678e-08 DIIS
   @DF-RHF iter  12:  -224.76243506444695   -4.55032e-11   5.80973e-09 DIIS
   @DF-RHF iter  13:  -224.76243506445115   -4.20641e-12   2.83582e-09 DIIS
   @DF-RHF iter  14:  -224.76243506445209   -9.37916e-13   9.79833e-10 DIIS
   @DF-RHF iter  15:  -224.76243506445252   -4.26326e-13   4.16538e-10 DIIS
   @DF-RHF iter  16:  -224.76243506445221    3.12639e-13   1.25808e-10 DIIS
   @DF-RHF iter  17:  -224.76243506445260   -3.97904e-13   4.47601e-11 DIIS
  Energy and wave function converged.


  ==> Post-Iterations <==

    Orbital Energies [Eh]
    ---------------------

    Doubly Occupied:                                                      

       1A    -15.636233     2A    -15.592291     3A    -11.279903  
       4A    -11.237759     5A    -11.209884     6A     -1.387001  
       7A     -1.121894     8A     -1.066928     9A     -0.872759  
      10A     -0.837039    11A     -0.757272    12A     -0.645745  
      13A     -0.620828    14A     -0.609177    15A     -0.583905  
      16A     -0.461413    17A     -0.370715    18A     -0.346055  

    Virtual:                                                              

      19A      0.023446    20A      0.030764    21A      0.040702  
      22A      0.042369    23A      0.044911    24A      0.049160  
      25A      0.063518    26A      0.066597    27A      0.084794  
      28A      0.091555    29A      0.099731    30A      0.101002  
      31A      0.104029    32A      0.117186    33A      0.119101  
      34A      0.126265    35A      0.126576    36A      0.128970  
      37A      0.133070    38A      0.134151    39A      0.134869  
      40A      0.138400    41A      0.141487    42A      0.156889  
      43A      0.159257    44A      0.164594    45A      0.166712  
      46A      0.171081    47A      0.178393    48A      0.180030  
      49A      0.196040    50A      0.196360    51A      0.202353  
      52A      0.204806    53A      0.206166    54A      0.223816  
      55A      0.225913    56A      0.229063    57A      0.236426  
      58A      0.240241    59A      0.243627    60A      0.244965  
      61A      0.264906    62A      0.271136    63A      0.271853  
      64A      0.279082    65A      0.301024    66A      0.322759  
      67A      0.325138    68A      0.340879    69A      0.352355  
      70A      0.355359    71A      0.367363    72A      0.373672  
      73A      0.374909    74A      0.384512    75A      0.396062  
      76A      0.402744    77A      0.415005    78A      0.428300  
      79A      0.432134    80A      0.432825    81A      0.441916  
      82A      0.443082    83A      0.443379    84A      0.453414  
      85A      0.456820    86A      0.458220    87A      0.459817  
      88A      0.462728    89A      0.478656    90A      0.498544  
      91A      0.508693    92A      0.510527    93A      0.520263  
      94A      0.521953    95A      0.533980    96A      0.538822  
      97A      0.541569    98A      0.560124    99A      0.569685  
     100A      0.572610   101A      0.574428   102A      0.586322  
     103A      0.590547   104A      0.595946   105A      0.602432  
     106A      0.614189   107A      0.620974   108A      0.622081  
     109A      0.634354   110A      0.646111   111A      0.655304  
     112A      0.676168   113A      0.691614   114A      0.698039  
     115A      0.700384   116A      0.708668   117A      0.720246  
     118A      0.721648   119A      0.725121   120A      0.736445  
     121A      0.746178   122A      0.747717   123A      0.758643  
     124A      0.773300   125A      0.781476   126A      0.790528  
     127A      0.798949   128A      0.815250   129A      0.821770  
     130A      0.828513   131A      0.838238   132A      0.848382  
     133A      0.852734   134A      0.855909   135A      0.871816  
     136A      0.881396   137A      0.881870   138A      0.888762  
     139A      0.896496   140A      0.906950   141A      0.917010  
     142A      0.924803   143A      0.942599   144A      0.952953  
     145A      0.978204   146A      0.984853   147A      0.998036  
     148A      1.011170   149A      1.025036   150A      1.031155  
     151A      1.046624   152A      1.052550   153A      1.066503  
     154A      1.071926   155A      1.081843   156A      1.100853  
     157A      1.109098   158A      1.128100   159A      1.134152  
     160A      1.150240   161A      1.159744   162A      1.167225  
     163A      1.175168   164A      1.185890   165A      1.220538  
     166A      1.222683   167A      1.237971   168A      1.268942  
     169A      1.269575   170A      1.294712   171A      1.303390  
     172A      1.311431   173A      1.316091   174A      1.341611  
     175A      1.365802   176A      1.382777   177A      1.401040  
     178A      1.435982   179A      1.445689   180A      1.474706  
     181A      1.494190   182A      1.507993   183A      1.512021  
     184A      1.526136   185A      1.560976   186A      1.590889  
     187A      1.608679   188A      1.637435   189A      1.669494  
     190A      1.677698   191A      1.689886   192A      1.703636  
     193A      1.723957   194A      1.749249   195A      1.764367  
     196A      1.805025   197A      1.875589   198A      1.932406  
     199A      1.943562   200A      1.988139   201A      2.021453  
     202A      2.041974   203A      2.057662   204A      2.088810  
     205A      2.109961   206A      2.135737   207A      2.144708  
     208A      2.168983   209A      2.189999   210A      2.200828  
     211A      2.217555   212A      2.230454   213A      2.234757  
     214A      2.262774   215A      2.275832   216A      2.278665  
     217A      2.290173   218A      2.307637   219A      2.336613  
     220A      2.360646   221A      2.381500   222A      2.389121  
     223A      2.393758   224A      2.395455   225A      2.435199  
     226A      2.444793   227A      2.464942   228A      2.479218  
     229A      2.500777   230A      2.514635   231A      2.531785  
     232A      2.549715   233A      2.570195   234A      2.584820  
     235A      2.632268   236A      2.642959   237A      2.668470  
     238A      2.703973   239A      2.719809   240A      2.733013  
     241A      2.826807   242A      2.828833   243A      2.834707  
     244A      2.870776   245A      2.890950   246A      2.901543  
     247A      2.918563   248A      2.946099   249A      2.999195  
     250A      3.028990   251A      3.055311   252A      3.090789  
     253A      3.092440   254A      3.122703   255A      3.140962  
     256A      3.182934   257A      3.189011   258A      3.222030  
     259A      3.255121   260A      3.290187   261A      3.297914  
     262A      3.356766   263A      3.380219   264A      3.396602  
     265A      3.424491   266A      3.449256   267A      3.488126  
     268A      3.498432   269A      3.520764   270A      3.634581  
     271A      3.667933   272A      3.686295   273A      3.736581  
     274A      3.771092   275A      3.852180   276A      3.889250  
     277A      3.965346   278A      4.036540   279A      4.095751  
     280A      4.209313   281A      4.245068   282A      4.449418  
     283A      4.463032   284A      4.659452   285A      4.709049  
     286A      4.750884   287A      4.811778   288A      4.995846  
     289A      5.077813   290A      5.242423   291A      5.532240  
     292A      5.669982   293A      5.827826   294A      6.107705  
     295A      6.319237   296A      6.709345   297A      6.968881  
     298A     18.112112   299A     18.648810   300A     19.374516  
     301A     25.246599   302A     25.705995  

    Final Occupation by Irrep:
              A 
    DOCC [    18 ]

  @DF-RHF Final Energy:  -224.76243506445260

   => Energetics <=

    Nuclear Repulsion Energy =            166.6286027674977106
    One-Electron Energy =                -633.5084733291562316
    Two-Electron Energy =                 242.1174354972059461
    Total Energy =                       -224.7624350644526032

Computation Completed


Properties will be evaluated at   0.000000,   0.000000,   0.000000 [a0]

Properties computed using the SCF density matrix

  Nuclear Dipole Moment: [e a0]
     X:   998.5027      Y:   544.2815      Z:   -11.5974

  Electronic Dipole Moment: [e a0]
     X:  -998.2118      Y:  -543.7175      Z:    12.3005

  Dipole Moment: [e a0]
     X:     0.2909      Y:     0.5640      Z:     0.7031     Total:     0.9472

  Dipole Moment: [D]
     X:     0.7394      Y:     1.4336      Z:     1.7871     Total:     2.4074


*** tstop() called on ds1 at Mon Oct  4 14:54:13 2021
Module time:
	user time   =      16.49 seconds =       0.27 minutes
	system time =       0.33 seconds =       0.01 minutes
	total time  =          4 seconds =       0.07 minutes
Total time:
	user time   =      56.83 seconds =       0.95 minutes
	system time =       1.28 seconds =       0.02 minutes
	total time  =         12 seconds =       0.20 minutes
  Constructing Basis Sets for SAPT...

   => Loading Basis Set <=

    Name: (AUG-CC-PVDZ AUX)
    Role: RIFIT
    Keyword: DF_BASIS_SAPT
    atoms 1-2, 10-11 entry N          line   158 file /theoryfs2/ds/csargent/miniconda3/envs/cle/share/psi4/basis/aug-cc-pvdz-ri.gbs 
    atoms 3-6, 12-15 entry H          line    30 file /theoryfs2/ds/csargent/miniconda3/envs/cle/share/psi4/basis/aug-cc-pvdz-ri.gbs 
    atoms 7-9, 16-18 entry C          line   112 file /theoryfs2/ds/csargent/miniconda3/envs/cle/share/psi4/basis/aug-cc-pvdz-ri.gbs 


  //>>>>>>>>>>>>>>>>>>>>>>>>>>>>>>>>>>>//
  //               SAPT0               //
  //<<<<<<<<<<<<<<<<<<<<<<<<<<<<<<<<<<<//


*** tstart() called on ds1
*** at Mon Oct  4 14:54:13 2021

        SAPT0  
    Ed Hohenstein
     6 June 2009

      Orbital Information
  --------------------------
    NSO        =       302
    NMO        =       302
    NRI        =       904
    NOCC A     =        18
    NOCC B     =        18
    FOCC A     =         5
    FOCC B     =         5
    NVIR A     =       284
    NVIR B     =       284

    Elst10,r            =     0.000028002183 [Eh]
    Exch10              =     0.000000000000 [Eh]
    Exch10 (S^2)        =     0.000000000000 [Eh]

    Iter     Energy [mEh]          dE [mEh]         Residual      Time [s]
       1      -0.00008436       0.000084357       0.096467458             0
       2      -0.00007649      -0.000007871       0.023915586             0
       3      -0.00008120       0.000004717       0.011525482             0
       4      -0.00008356       0.000002362       0.002209471             1
       5      -0.00008328      -0.000000282       0.001363663             1
       6      -0.00008323      -0.000000058       0.000484633             1
       7      -0.00008326       0.000000031       0.000188207             1
       8      -0.00008326       0.000000008       0.000065840             1
       9      -0.00008326      -0.000000001       0.000022185             1
      10      -0.00008326      -0.000000001       0.000006264             1
      11      -0.00008326       0.000000000       0.000002770             1
      12      -0.00008326       0.000000000       0.000000944             2

    CHF Iterations converged


    Iter     Energy [mEh]          dE [mEh]         Residual      Time [s]
       1      -0.00005355       0.000053552       0.078485120             0
       2      -0.00004878      -0.000004771       0.018245349             0
       3      -0.00005268       0.000003905       0.007085066             0
       4      -0.00005344       0.000000759       0.001669742             0
       5      -0.00005336      -0.000000087       0.000870024             0
       6      -0.00005330      -0.000000052       0.000311054             0
       7      -0.00005331       0.000000004       0.000135565             1
       8      -0.00005332       0.000000007       0.000063265             1
       9      -0.00005332       0.000000001       0.000017263             1
      10      -0.00005332      -0.000000001       0.000004357             1
      11      -0.00005332       0.000000000       0.000002170             1
      12      -0.00005332       0.000000000       0.000000664             1

    CHF Iterations converged

    Ind20,r (A<-B)      =    -0.000000083261 [Eh]
    Ind20,r (B<-A)      =    -0.000000053315 [Eh]
    Ind20,r             =    -0.000000136576 [Eh]
    Exch-Ind20,r (A<-B) =     0.000000000000 [Eh]
    Exch-Ind20,r (B<-A) =     0.000000000000 [Eh]
    Exch-Ind20,r        =     0.000000000000 [Eh]
    Disp20              =    -0.000001731312 [Eh]
    Disp20 (SS)         =    -0.000000865656 [Eh]
    Disp20 (OS)         =    -0.000000865656 [Eh]
    Exch-Disp20         =     0.000000000000 [Eh]
    Exch-Disp20 (SS)    =     0.000000000000 [Eh]
    Exch-Disp20 (OS)    =     0.000000000000 [Eh]

    SAPT Results 
  --------------------------------------------------------------------------------------------------------
    Electrostatics                  0.02800218 [mEh]       0.01757164 [kcal/mol]       0.07351972 [kJ/mol]
      Elst10,r                      0.02800218 [mEh]       0.01757164 [kcal/mol]       0.07351972 [kJ/mol]

    Exchange                        0.00000000 [mEh]       0.00000000 [kcal/mol]       0.00000000 [kJ/mol]
      Exch10                        0.00000000 [mEh]       0.00000000 [kcal/mol]       0.00000000 [kJ/mol]
      Exch10(S^2)                   0.00000000 [mEh]       0.00000000 [kcal/mol]       0.00000000 [kJ/mol]

    Induction                      -0.00007409 [mEh]      -0.00004649 [kcal/mol]      -0.00019452 [kJ/mol]
      Ind20,r                      -0.00013658 [mEh]      -0.00008570 [kcal/mol]      -0.00035858 [kJ/mol]
      Exch-Ind20,r                  0.00000000 [mEh]       0.00000000 [kcal/mol]       0.00000000 [kJ/mol]
      delta HF,r (2)                0.00006249 [mEh]       0.00003921 [kcal/mol]       0.00016406 [kJ/mol]

    Dispersion                     -0.00173131 [mEh]      -0.00108641 [kcal/mol]      -0.00454556 [kJ/mol]
      Disp20                       -0.00173131 [mEh]      -0.00108641 [kcal/mol]      -0.00454556 [kJ/mol]
      Exch-Disp20                   0.00000000 [mEh]       0.00000000 [kcal/mol]       0.00000000 [kJ/mol]
      Disp20 (SS)                  -0.00086566 [mEh]      -0.00054321 [kcal/mol]      -0.00227278 [kJ/mol]
      Disp20 (OS)                  -0.00086566 [mEh]      -0.00054321 [kcal/mol]      -0.00227278 [kJ/mol]
      Exch-Disp20 (SS)              0.00000000 [mEh]       0.00000000 [kcal/mol]       0.00000000 [kJ/mol]
      Exch-Disp20 (OS)              0.00000000 [mEh]       0.00000000 [kcal/mol]       0.00000000 [kJ/mol]

  Total HF                          0.02792809 [mEh]       0.01752514 [kcal/mol]       0.07332520 [kJ/mol]
  Total SAPT0                       0.02619678 [mEh]       0.01643873 [kcal/mol]       0.06877964 [kJ/mol]

  Special recipe for scaled SAPT0 (see Manual):
    Electrostatics sSAPT0           0.02800218 [mEh]       0.01757164 [kcal/mol]       0.07351972 [kJ/mol]
    Exchange sSAPT0                 0.00000000 [mEh]       0.00000000 [kcal/mol]       0.00000000 [kJ/mol]
    Induction sSAPT0               -0.00007409 [mEh]      -0.00004649 [kcal/mol]      -0.00019452 [kJ/mol]
    Dispersion sSAPT0              -0.00173131 [mEh]      -0.00108641 [kcal/mol]      -0.00454556 [kJ/mol]
  Total sSAPT0                      0.02619678 [mEh]       0.01643873 [kcal/mol]       0.06877964 [kJ/mol]
  --------------------------------------------------------------------------------------------------------

*** tstop() called on ds1 at Mon Oct  4 14:54:23 2021
Module time:
	user time   =      45.35 seconds =       0.76 minutes
	system time =       3.99 seconds =       0.07 minutes
	total time  =         10 seconds =       0.17 minutes
Total time:
	user time   =     102.75 seconds =       1.71 minutes
	system time =       5.28 seconds =       0.09 minutes
	total time  =         22 seconds =       0.37 minutes


Warning! sapt0 does not have an associated derived wavefunction.The returned wavefunction is the dimer SCF wavefunction.


    Psi4 stopped on: Monday, 04 October 2021 02:54PM
    Psi4 wall time for execution: 0:00:22.12

*** Psi4 exiting successfully. Buy a developer a beer!
