
    -----------------------------------------------------------------------
          Psi4: An Open-Source Ab Initio Electronic Structure Package
                               Psi4 1.4rc3 

                         Git: Rev {HEAD} 080dba6 


    D. G. A. Smith, L. A. Burns, A. C. Simmonett, R. M. Parrish,
    M. C. Schieber, R. Galvelis, P. Kraus, H. Kruse, R. Di Remigio,
    A. Alenaizan, A. M. James, S. Lehtola, J. P. Misiewicz, M. Scheurer,
    R. A. Shaw, J. B. Schriber, Y. Xie, Z. L. Glick, D. A. Sirianni,
    J. S. O'Brien, J. M. Waldrop, A. Kumar, E. G. Hohenstein,
    B. P. Pritchard, B. R. Brooks, H. F. Schaefer III, A. Yu. Sokolov,
    K. Patkowski, A. E. DePrince III, U. Bozkaya, R. A. King,
    F. A. Evangelista, J. M. Turney, T. D. Crawford, C. D. Sherrill,
    J. Chem. Phys. 152(18) 184108 (2020). https://doi.org/10.1063/5.0006002

                            Additional Code Authors
    E. T. Seidl, C. L. Janssen, E. F. Valeev, M. L. Leininger,
    J. F. Gonthier, R. M. Richard, H. R. McAlexander, M. Saitow, X. Wang,
    P. Verma, and M. H. Lechner

             Previous Authors, Complete List of Code Contributors,
                       and Citations for Specific Modules
    https://github.com/psi4/psi4/blob/master/codemeta.json
    https://github.com/psi4/psi4/graphs/contributors
    http://psicode.org/psi4manual/master/introduction.html#citing-psifour

    -----------------------------------------------------------------------


    Psi4 started on: Monday, 04 October 2021 01:46PM

    Process ID: 8622
    Host:       ds1
    PSIDATADIR: /theoryfs2/ds/csargent/miniconda3/envs/cle/share/psi4
    Memory:     500.0 MiB
    Threads:    6
    
  ==> Input File <==

--------------------------------------------------------------------------
# PSI4 file produced by CrystaLattE

# Generated from:               pyrazole.xyz
# Psithon input for N-mer:      2mer-0+672
# Number of atoms per monomer:  [9, 9]
# Number of replicas:           1
# COM priority:                 1.473540204156e-05
# Minimum COM separations:      21.585 
# Separation priority:          2.397762121492e-05
# Minimum monomer separations:  18.351 
# Cutoff priority:              6.914192397154e-07
# Nuclear repulsion energy:     365.0128681674677

memory 7 GB

molecule Dimer_0_672 {
  N            6.27981210      -4.25303372       0.19313865 
  N            6.06870777      -2.28125697       1.80544317 
  H            3.66871156      -5.64628941      -1.96684001 
  H            0.69034521      -2.37545694      -0.42864236 
  H            3.35917442       0.17650601       3.09265017 
  H            7.35266782      -1.99461311       2.90680702 
  C            3.77952586      -1.21508453       1.76858172 
  C            2.38242998      -2.55505538       0.04607681 
  C            4.01771468      -4.38410490      -0.88761863 
--
  N           41.49028077      -9.49302627      11.25733365 
  N           41.60914304      -7.45511923      12.79450737 
  H           44.16344351     -11.89393623      10.53930329 
  H           47.05808007      -9.45139749      13.29444080 
  H           44.12165600      -5.73834848      15.19907711 
  H           40.14673482      -6.64514217      13.18027269 
  C           43.89197944      -7.12494356      13.82355622 
  C           45.37497187      -9.05461578      12.93363375 
  C           43.81366654     -10.43978359      11.34193580 
units = au
no_com
no_reorient
}

set {
  e_convergence 10
  d_convergence 10
  scf_type df
  mp2_type df
  cc_type df
  freeze_core true
}

energy('sapt0/aug-cc-pvdz')

--------------------------------------------------------------------------

  Memory set to   6.519 GiB by Python driver.

Scratch directory: /scratch/csargent/psi4.7158.66302/

Scratch directory: /scratch/csargent/psi4.7158.66302/

  //>>>>>>>>>>>>>>>>>>>>>>>>>>>>>>>>>>>//
  //              Dimer HF             //
  //<<<<<<<<<<<<<<<<<<<<<<<<<<<<<<<<<<<//


*** tstart() called on ds1
*** at Mon Oct  4 13:46:08 2021

   => Loading Basis Set <=

    Name: AUG-CC-PVDZ
    Role: ORBITAL
    Keyword: BASIS
    atoms 1-2, 10-11 entry N          line   218 file /theoryfs2/ds/csargent/miniconda3/envs/cle/share/psi4/basis/aug-cc-pvdz.gbs 
    atoms 3-6, 12-15 entry H          line    40 file /theoryfs2/ds/csargent/miniconda3/envs/cle/share/psi4/basis/aug-cc-pvdz.gbs 
    atoms 7-9, 16-18 entry C          line   182 file /theoryfs2/ds/csargent/miniconda3/envs/cle/share/psi4/basis/aug-cc-pvdz.gbs 


         ---------------------------------------------------------
                                   SCF
               by Justin Turney, Rob Parrish, Andy Simmonett
                          and Daniel G. A. Smith
                              RHF Reference
                        6 Threads,   6675 MiB Core
         ---------------------------------------------------------

  ==> Geometry <==

    Molecular point group: c1
    Full point group: C1

    Geometry (in Bohr), charge = 0, multiplicity = 1:

       Center              X                  Y                   Z               Mass       
    ------------   -----------------  -----------------  -----------------  -----------------
         N            6.279812100000    -4.253033720000     0.193138650000    14.003074004430
         N            6.068707770000    -2.281256970000     1.805443170000    14.003074004430
         H            3.668711560000    -5.646289410000    -1.966840010000     1.007825032230
         H            0.690345210000    -2.375456940000    -0.428642360000     1.007825032230
         H            3.359174420000     0.176506010000     3.092650170000     1.007825032230
         H            7.352667820000    -1.994613110000     2.906807020000     1.007825032230
         C            3.779525860000    -1.215084530000     1.768581720000    12.000000000000
         C            2.382429980000    -2.555055380000     0.046076810000    12.000000000000
         C            4.017714680000    -4.384104900000    -0.887618630000    12.000000000000
         N           41.490280770000    -9.493026270000    11.257333650000    14.003074004430
         N           41.609143040000    -7.455119230000    12.794507370000    14.003074004430
         H           44.163443510000   -11.893936230000    10.539303290000     1.007825032230
         H           47.058080070000    -9.451397490000    13.294440800000     1.007825032230
         H           44.121656000000    -5.738348480000    15.199077110000     1.007825032230
         H           40.146734820000    -6.645142170000    13.180272690000     1.007825032230
         C           43.891979440000    -7.124943560000    13.823556220000    12.000000000000
         C           45.374971870000    -9.054615780000    12.933633750000    12.000000000000
         C           43.813666540000   -10.439783590000    11.341935800000    12.000000000000

  Running in c1 symmetry.

  Rotational constants: A =      0.09004  B =      0.00042  C =      0.00041 [cm^-1]
  Rotational constants: A =   2699.36318  B =     12.48124  C =     12.42719 [MHz]
  Nuclear repulsion =  365.012868111041030

  Charge       = 0
  Multiplicity = 1
  Electrons    = 72
  Nalpha       = 36
  Nbeta        = 36

  ==> Algorithm <==

  SCF Algorithm Type is DF.
  DIIS enabled.
  MOM disabled.
  Fractional occupation disabled.
  Guess Type is SAD.
  Energy threshold   = 1.00e-10
  Density threshold  = 1.00e-10
  Integral threshold = 1.00e-12

  ==> Primary Basis <==

  Basis Set: AUG-CC-PVDZ
    Blend: AUG-CC-PVDZ
    Number of shells: 130
    Number of basis functions: 302
    Number of Cartesian functions: 322
    Spherical Harmonics?: true
    Max angular momentum: 2

   => Loading Basis Set <=

    Name: (AUG-CC-PVDZ AUX)
    Role: JKFIT
    Keyword: DF_BASIS_SCF
    atoms 1-2, 10-11 entry N          line   212 file /theoryfs2/ds/csargent/miniconda3/envs/cle/share/psi4/basis/aug-cc-pvdz-jkfit.gbs 
    atoms 3-6, 12-15 entry H          line    70 file /theoryfs2/ds/csargent/miniconda3/envs/cle/share/psi4/basis/aug-cc-pvdz-jkfit.gbs 
    atoms 7-9, 16-18 entry C          line   154 file /theoryfs2/ds/csargent/miniconda3/envs/cle/share/psi4/basis/aug-cc-pvdz-jkfit.gbs 

  ==> Integral Setup <==

  ==> DiskDFJK: Density-Fitted J/K Matrices <==

    J tasked:                  Yes
    K tasked:                  Yes
    wK tasked:                  No
    OpenMP threads:              6
    Integrals threads:           6
    Memory [MiB]:             5006
    Algorithm:                Core
    Integral Cache:           SAVE
    Schwarz Cutoff:          1E-12
    Fitting Condition:       1E-10

   => Auxiliary Basis Set <=

  Basis Set: (AUG-CC-PVDZ AUX)
    Blend: AUG-CC-PVDZ-JKFIT
    Number of shells: 376
    Number of basis functions: 1116
    Number of Cartesian functions: 1290
    Spherical Harmonics?: true
    Max angular momentum: 3

  Minimum eigenvalue in the overlap matrix is 3.0324469331E-05.
  Reciprocal condition number of the overlap matrix is 2.4867199403E-06.
    Using symmetric orthogonalization.

  ==> Pre-Iterations <==

  SCF Guess: Superposition of Atomic Densities via on-the-fly atomic UHF (no occupation information).

   -------------------------
    Irrep   Nso     Nmo    
   -------------------------
     A        302     302 
   -------------------------
    Total     302     302
   -------------------------

  ==> Iterations <==

                           Total Energy        Delta E     RMS |[F,P]|

   @DF-RHF iter SAD:  -449.44445655591551   -4.49444e+02   0.00000e+00 
   @DF-RHF iter   1:  -449.27100299294170    1.73454e-01   2.12827e-03 DIIS
   @DF-RHF iter   2:  -449.47972455781871   -2.08722e-01   9.74087e-04 DIIS
   @DF-RHF iter   3:  -449.52157917448238   -4.18546e-02   2.10338e-04 DIIS
   @DF-RHF iter   4:  -449.52434983807024   -2.77066e-03   8.57244e-05 DIIS
   @DF-RHF iter   5:  -449.52470744596673   -3.57608e-04   1.69537e-05 DIIS
   @DF-RHF iter   6:  -449.52474134130233   -3.38953e-05   7.02460e-06 DIIS
   @DF-RHF iter   7:  -449.52474924134566   -7.90004e-06   3.10198e-06 DIIS
   @DF-RHF iter   8:  -449.52475076641633   -1.52507e-06   1.43853e-06 DIIS
   @DF-RHF iter   9:  -449.52475110272223   -3.36306e-07   4.01721e-07 DIIS
   @DF-RHF iter  10:  -449.52475112046756   -1.77453e-08   1.20931e-07 DIIS
   @DF-RHF iter  11:  -449.52475112185095   -1.38340e-09   2.82798e-08 DIIS
   @DF-RHF iter  12:  -449.52475112194293   -9.19727e-11   8.24298e-09 DIIS
   @DF-RHF iter  13:  -449.52475112195197   -9.03810e-12   4.02730e-09 DIIS
   @DF-RHF iter  14:  -449.52475112195299   -1.02318e-12   1.39300e-09 DIIS
   @DF-RHF iter  15:  -449.52475112195339   -3.97904e-13   5.91738e-10 DIIS
   @DF-RHF iter  16:  -449.52475112195407   -6.82121e-13   1.79262e-10 DIIS
   @DF-RHF iter  17:  -449.52475112195373    3.41061e-13   6.43519e-11 DIIS
  Energy and wave function converged.


  ==> Post-Iterations <==

    Orbital Energies [Eh]
    ---------------------

    Doubly Occupied:                                                      

       1A    -15.636073     2A    -15.635985     3A    -15.592119  
       4A    -15.592065     5A    -11.279749     6A    -11.279665  
       7A    -11.237584     8A    -11.237534     9A    -11.209728  
      10A    -11.209663    11A     -1.386837    12A     -1.386680  
      13A     -1.121728    14A     -1.121658    15A     -1.066768  
      16A     -1.066665    17A     -0.872595    18A     -0.872528  
      19A     -0.836874    20A     -0.836822    21A     -0.757118  
      22A     -0.757065    23A     -0.645581    24A     -0.645507  
      25A     -0.620665    26A     -0.620597    27A     -0.609014  
      28A     -0.608899    29A     -0.583747    30A     -0.583689  
      31A     -0.461235    32A     -0.461148    33A     -0.370547  
      34A     -0.370477    35A     -0.345893    36A     -0.345811  

    Virtual:                                                              

      37A      0.030841    38A      0.030922    39A      0.042521  
      40A      0.042575    41A      0.049320    42A      0.049406  
      43A      0.063672    44A      0.063748    45A      0.101124  
      46A      0.101196    47A      0.104210    48A      0.104287  
      49A      0.117373    50A      0.117430    51A      0.126431  
      52A      0.126501    53A      0.133197    54A      0.133273  
      55A      0.138556    56A      0.138618    57A      0.141633  
      58A      0.141695    59A      0.157025    60A      0.157087  
      61A      0.164749    62A      0.164807    63A      0.171241  
      64A      0.171312    65A      0.178576    66A      0.178648  
      67A      0.196183    68A      0.196278    69A      0.204974  
      70A      0.205045    71A      0.206337    72A      0.206420  
      73A      0.240422    74A      0.240489    75A      0.243791  
      76A      0.243866    77A      0.245164    78A      0.245246  
      79A      0.271326    80A      0.271393    81A      0.279219  
      82A      0.279298    83A      0.301251    84A      0.301311  
      85A      0.325290    86A      0.325373    87A      0.352499  
      88A      0.352577    89A      0.355527    90A      0.355595  
      91A      0.375053    92A      0.375124    93A      0.396202  
      94A      0.396273    95A      0.402896    96A      0.402967  
      97A      0.415153    98A      0.415211    99A      0.432285  
     100A      0.432367   101A      0.443566   102A      0.443646  
     103A      0.453586   104A      0.453642   105A      0.459978  
     106A      0.460046   107A      0.478801   108A      0.478882  
     109A      0.498712   110A      0.498785   111A      0.508859  
     112A      0.508931   113A      0.522097   114A      0.522135  
     115A      0.541729   116A      0.541791   117A      0.574580  
     118A      0.574664   119A      0.586478   120A      0.586550  
     121A      0.590698   122A      0.590762   123A      0.602581  
     124A      0.602636   125A      0.621133   126A      0.621182  
     127A      0.646270   128A      0.646340   129A      0.655454  
     130A      0.655514   131A      0.676327   132A      0.676393  
     133A      0.698200   134A      0.698274   135A      0.700542  
     136A      0.700625   137A      0.721808   138A      0.721900  
     139A      0.725271   140A      0.725339   141A      0.747879  
     142A      0.747945   143A      0.758809   144A      0.758830  
     145A      0.773465   146A      0.773558   147A      0.781637  
     148A      0.781720   149A      0.828690   150A      0.828758  
     151A      0.838394   152A      0.838463   153A      0.848541  
     154A      0.848623   155A      0.881558   156A      0.881627  
     157A      0.888913   158A      0.888991   159A      0.907116  
     160A      0.907190   161A      0.924964   162A      0.925055  
     163A      0.942767   164A      0.942825   165A      0.978371  
     166A      0.978461   167A      0.985016   168A      0.985087  
     169A      1.011356   170A      1.011413   171A      1.046796  
     172A      1.046859   173A      1.066661   174A      1.066733  
     175A      1.101010   176A      1.101088   177A      1.128267  
     178A      1.128301   179A      1.134316   180A      1.134436  
     181A      1.150398   182A      1.150466   183A      1.175332  
     184A      1.175407   185A      1.220711   186A      1.220797  
     187A      1.269738   188A      1.269797   189A      1.303560  
     190A      1.303588   191A      1.311598   192A      1.311644  
     193A      1.365971   194A      1.366054   195A      1.401202  
     196A      1.401278   197A      1.474875   198A      1.474939  
     199A      1.512181   200A      1.512266   201A      1.526298  
     202A      1.526363   203A      1.561141   204A      1.561228  
     205A      1.591041   206A      1.591106   207A      1.608842  
     208A      1.608904   209A      1.637593   210A      1.637667  
     211A      1.669652   212A      1.669702   213A      1.703794  
     214A      1.703867   215A      1.724121   216A      1.724188  
     217A      1.749417   218A      1.749457   219A      1.764527  
     220A      1.764608   221A      1.805192   222A      1.805289  
     223A      1.875741   224A      1.875859   225A      1.932570  
     226A      1.932629   227A      1.943719   228A      1.943786  
     229A      1.988307   230A      1.988307   231A      2.021619  
     232A      2.021686   233A      2.057822   234A      2.057847  
     235A      2.088965   236A      2.089070   237A      2.144872  
     238A      2.144926   239A      2.190155   240A      2.190235  
     241A      2.200993   242A      2.201064   243A      2.230615  
     244A      2.230695   245A      2.275999   246A      2.276064  
     247A      2.307794   248A      2.307874   249A      2.360810  
     250A      2.360954   251A      2.389285   252A      2.389370  
     253A      2.393912   254A      2.394057   255A      2.435364  
     256A      2.435490   257A      2.465100   258A      2.465206  
     259A      2.531949   260A      2.532038   261A      2.570360  
     262A      2.570473   263A      2.584954   264A      2.584978  
     265A      2.643120   266A      2.643198   267A      2.733166  
     268A      2.733258   269A      2.826976   270A      2.827082  
     271A      2.834874   272A      2.834993   273A      2.901708  
     274A      2.901829   275A      2.918722   276A      2.918836  
     277A      2.999355   278A      2.999393   279A      3.055472  
     280A      3.055562   281A      3.092606   282A      3.092610  
     283A      3.122865   284A      3.122968   285A      3.189176  
     286A      3.189183   287A      3.222192   288A      3.222245  
     289A      3.298084   290A      3.298113   291A      3.380373  
     292A      3.380463   293A      3.520929   294A      3.520970  
     295A      3.686458   296A      3.686800   297A      3.889414  
     298A      3.889570   299A      4.209483   300A      4.209676  
     301A      4.463193   302A      4.463468  

    Final Occupation by Irrep:
              A 
    DOCC [    36 ]

  @DF-RHF Final Energy:  -449.52475112195373

   => Energetics <=

    Nuclear Repulsion Energy =            365.0128681110410298
    One-Electron Energy =               -1330.5426137081537945
    Two-Electron Energy =                 516.0049944751590374
    Total Energy =                       -449.5247511219537273

Computation Completed


Properties will be evaluated at   0.000000,   0.000000,   0.000000 [a0]

Properties computed using the SCF density matrix

  Nuclear Dipole Moment: [e a0]
     X:  1718.2581      Y:  -416.5873      Z:   472.3270

  Electronic Dipole Moment: [e a0]
     X: -1718.3696      Y:   417.7817      Z:  -471.0453

  Dipole Moment: [e a0]
     X:    -0.1114      Y:     1.1944      Z:     1.2817     Total:     1.7555

  Dipole Moment: [D]
     X:    -0.2832      Y:     3.0359      Z:     3.2577     Total:     4.4620


*** tstop() called on ds1 at Mon Oct  4 13:46:12 2021
Module time:
	user time   =      21.90 seconds =       0.37 minutes
	system time =       0.57 seconds =       0.01 minutes
	total time  =          4 seconds =       0.07 minutes
Total time:
	user time   =      21.90 seconds =       0.37 minutes
	system time =       0.57 seconds =       0.01 minutes
	total time  =          4 seconds =       0.07 minutes

  //>>>>>>>>>>>>>>>>>>>>>>>>>>>>>>>>>>>//
  //            Monomer A HF           //
  //<<<<<<<<<<<<<<<<<<<<<<<<<<<<<<<<<<<//


*** tstart() called on ds1
*** at Mon Oct  4 13:46:12 2021

   => Loading Basis Set <=

    Name: AUG-CC-PVDZ
    Role: ORBITAL
    Keyword: BASIS
    atoms 1-2, 10-11 entry N          line   218 file /theoryfs2/ds/csargent/miniconda3/envs/cle/share/psi4/basis/aug-cc-pvdz.gbs 
    atoms 3-6, 12-15 entry H          line    40 file /theoryfs2/ds/csargent/miniconda3/envs/cle/share/psi4/basis/aug-cc-pvdz.gbs 
    atoms 7-9, 16-18 entry C          line   182 file /theoryfs2/ds/csargent/miniconda3/envs/cle/share/psi4/basis/aug-cc-pvdz.gbs 


         ---------------------------------------------------------
                                   SCF
               by Justin Turney, Rob Parrish, Andy Simmonett
                          and Daniel G. A. Smith
                              RHF Reference
                        6 Threads,   6675 MiB Core
         ---------------------------------------------------------

  ==> Geometry <==

    Molecular point group: c1
    Full point group: C1

    Geometry (in Bohr), charge = 0, multiplicity = 1:

       Center              X                  Y                   Z               Mass       
    ------------   -----------------  -----------------  -----------------  -----------------
         N            6.279812100000    -4.253033720000     0.193138650000    14.003074004430
         N            6.068707770000    -2.281256970000     1.805443170000    14.003074004430
         H            3.668711560000    -5.646289410000    -1.966840010000     1.007825032230
         H            0.690345210000    -2.375456940000    -0.428642360000     1.007825032230
         H            3.359174420000     0.176506010000     3.092650170000     1.007825032230
         H            7.352667820000    -1.994613110000     2.906807020000     1.007825032230
         C            3.779525860000    -1.215084530000     1.768581720000    12.000000000000
         C            2.382429980000    -2.555055380000     0.046076810000    12.000000000000
         C            4.017714680000    -4.384104900000    -0.887618630000    12.000000000000
      Gh(N)          41.490280770000    -9.493026270000    11.257333650000    14.003074004430
      Gh(N)          41.609143040000    -7.455119230000    12.794507370000    14.003074004430
      Gh(H)          44.163443510000   -11.893936230000    10.539303290000     1.007825032230
      Gh(H)          47.058080070000    -9.451397490000    13.294440800000     1.007825032230
      Gh(H)          44.121656000000    -5.738348480000    15.199077110000     1.007825032230
      Gh(H)          40.146734820000    -6.645142170000    13.180272690000     1.007825032230
      Gh(C)          43.891979440000    -7.124943560000    13.823556220000    12.000000000000
      Gh(C)          45.374971870000    -9.054615780000    12.933633750000    12.000000000000
      Gh(C)          43.813666540000   -10.439783590000    11.341935800000    12.000000000000

  Running in c1 symmetry.

  Rotational constants: A =      0.09004  B =      0.00042  C =      0.00041 [cm^-1]
  Rotational constants: A =   2699.36318  B =     12.48124  C =     12.42719 [MHz]
  Nuclear repulsion =  166.624056450327203

  Charge       = 0
  Multiplicity = 1
  Electrons    = 36
  Nalpha       = 18
  Nbeta        = 18

  ==> Algorithm <==

  SCF Algorithm Type is DF.
  DIIS enabled.
  MOM disabled.
  Fractional occupation disabled.
  Guess Type is SAD.
  Energy threshold   = 1.00e-10
  Density threshold  = 1.00e-10
  Integral threshold = 1.00e-12

  ==> Primary Basis <==

  Basis Set: AUG-CC-PVDZ
    Blend: AUG-CC-PVDZ
    Number of shells: 130
    Number of basis functions: 302
    Number of Cartesian functions: 322
    Spherical Harmonics?: true
    Max angular momentum: 2

   => Loading Basis Set <=

    Name: (AUG-CC-PVDZ AUX)
    Role: JKFIT
    Keyword: DF_BASIS_SCF
    atoms 1-2, 10-11 entry N          line   212 file /theoryfs2/ds/csargent/miniconda3/envs/cle/share/psi4/basis/aug-cc-pvdz-jkfit.gbs 
    atoms 3-6, 12-15 entry H          line    70 file /theoryfs2/ds/csargent/miniconda3/envs/cle/share/psi4/basis/aug-cc-pvdz-jkfit.gbs 
    atoms 7-9, 16-18 entry C          line   154 file /theoryfs2/ds/csargent/miniconda3/envs/cle/share/psi4/basis/aug-cc-pvdz-jkfit.gbs 

  ==> Integral Setup <==

  ==> DiskDFJK: Density-Fitted J/K Matrices <==

    J tasked:                  Yes
    K tasked:                  Yes
    wK tasked:                  No
    OpenMP threads:              6
    Integrals threads:           6
    Memory [MiB]:             5006
    Algorithm:                Core
    Integral Cache:           LOAD
    Schwarz Cutoff:          1E-12
    Fitting Condition:       1E-10

   => Auxiliary Basis Set <=

  Basis Set: (AUG-CC-PVDZ AUX)
    Blend: AUG-CC-PVDZ-JKFIT
    Number of shells: 376
    Number of basis functions: 1116
    Number of Cartesian functions: 1290
    Spherical Harmonics?: true
    Max angular momentum: 3

  Minimum eigenvalue in the overlap matrix is 3.0324469331E-05.
  Reciprocal condition number of the overlap matrix is 2.4867199403E-06.
    Using symmetric orthogonalization.

  ==> Pre-Iterations <==

  SCF Guess: Superposition of Atomic Densities via on-the-fly atomic UHF (no occupation information).

   -------------------------
    Irrep   Nso     Nmo    
   -------------------------
     A        302     302 
   -------------------------
    Total     302     302
   -------------------------

  ==> Iterations <==

                           Total Energy        Delta E     RMS |[F,P]|

   @DF-RHF iter SAD:  -224.72194801185316   -2.24722e+02   0.00000e+00 
   @DF-RHF iter   1:  -224.63549169943460    8.64563e-02   1.50472e-03 DIIS
   @DF-RHF iter   2:  -224.73984613211064   -1.04354e-01   6.88462e-04 DIIS
   @DF-RHF iter   3:  -224.76075487098015   -2.09087e-02   1.48626e-04 DIIS
   @DF-RHF iter   4:  -224.76213931475985   -1.38444e-03   6.05310e-05 DIIS
   @DF-RHF iter   5:  -224.76231766951850   -1.78355e-04   1.19893e-05 DIIS
   @DF-RHF iter   6:  -224.76233462699247   -1.69575e-05   4.96772e-06 DIIS
   @DF-RHF iter   7:  -224.76233858303038   -3.95604e-06   2.18806e-06 DIIS
   @DF-RHF iter   8:  -224.76233934377197   -7.60742e-07   1.01700e-06 DIIS
   @DF-RHF iter   9:  -224.76233951141450   -1.67643e-07   2.83302e-07 DIIS
   @DF-RHF iter  10:  -224.76233952023455   -8.82005e-09   8.55547e-08 DIIS
   @DF-RHF iter  11:  -224.76233952092448   -6.89937e-10   1.99714e-08 DIIS
   @DF-RHF iter  12:  -224.76233952097056   -4.60716e-11   5.81092e-09 DIIS
   @DF-RHF iter  13:  -224.76233952097485   -4.29168e-12   2.83097e-09 DIIS
   @DF-RHF iter  14:  -224.76233952097616   -1.30740e-12   9.75191e-10 DIIS
   @DF-RHF iter  15:  -224.76233952097564    5.11591e-13   4.15548e-10 DIIS
   @DF-RHF iter  16:  -224.76233952097627   -6.25278e-13   1.25997e-10 DIIS
   @DF-RHF iter  17:  -224.76233952097598    2.84217e-13   4.47778e-11 DIIS
  Energy and wave function converged.


  ==> Post-Iterations <==

    Orbital Energies [Eh]
    ---------------------

    Doubly Occupied:                                                      

       1A    -15.636223     2A    -15.592313     3A    -11.279894  
       4A    -11.237784     5A    -11.209891     6A     -1.386922  
       7A     -1.121901     8A     -1.066898     9A     -0.872768  
      10A     -0.837061    11A     -0.757292    12A     -0.645746  
      13A     -0.620834    14A     -0.609140    15A     -0.583920  
      16A     -0.461404    17A     -0.370721    18A     -0.346048  

    Virtual:                                                              

      19A      0.022861    20A      0.030764    21A      0.040192  
      22A      0.042368    23A      0.044328    24A      0.049159  
      25A      0.063520    26A      0.066032    27A      0.084164  
      28A      0.090948    29A      0.099168    30A      0.100998  
      31A      0.104029    32A      0.117179    33A      0.118533  
      34A      0.126028    35A      0.126270    36A      0.128410  
      37A      0.133069    38A      0.133561    39A      0.134312  
      40A      0.138403    41A      0.141490    42A      0.156889  
      43A      0.158751    44A      0.164592    45A      0.166128  
      46A      0.171075    47A      0.178408    48A      0.179377  
      49A      0.195707    50A      0.196042    51A      0.201705  
      52A      0.204793    53A      0.206162    54A      0.223171  
      55A      0.225337    56A      0.228472    57A      0.235775  
      58A      0.240236    59A      0.243626    60A      0.244965  
      61A      0.264323    62A      0.271127    63A      0.271194  
      64A      0.279080    65A      0.301010    66A      0.322162  
      67A      0.325148    68A      0.340279    69A      0.352358  
      70A      0.355357    71A      0.366757    72A      0.373112  
      73A      0.374907    74A      0.383925    75A      0.396061  
      76A      0.402741    77A      0.414998    78A      0.427665  
      79A      0.432132    80A      0.432267    81A      0.441373  
      82A      0.442515    83A      0.443385    84A      0.453393  
      85A      0.456212    86A      0.457632    87A      0.459816  
      88A      0.462085    89A      0.478655    90A      0.498543  
      91A      0.508690    92A      0.509928    93A      0.519614  
      94A      0.521917    95A      0.533326    96A      0.538264  
      97A      0.541560    98A      0.559528    99A      0.569020  
     100A      0.572050   101A      0.574432   102A      0.586318  
     103A      0.590538   104A      0.595362   105A      0.602413  
     106A      0.613599   107A      0.620953   108A      0.621479  
     109A      0.633749   110A      0.646110   111A      0.655295  
     112A      0.676162   113A      0.691039   114A      0.698041  
     115A      0.700391   116A      0.708033   117A      0.719662  
     118A      0.721667   119A      0.725115   120A      0.735870  
     121A      0.745598   122A      0.747709   123A      0.758592  
     124A      0.773318   125A      0.781481   126A      0.789942  
     127A      0.798327   128A      0.814662   129A      0.821176  
     130A      0.828504   131A      0.838230   132A      0.848394  
     133A      0.852166   134A      0.855312   135A      0.871232  
     136A      0.881310   137A      0.881395   138A      0.888767  
     139A      0.895913   140A      0.906950   141A      0.916383  
     142A      0.924815   143A      0.942582   144A      0.952356  
     145A      0.978222   146A      0.984850   147A      0.997437  
     148A      1.011149   149A      1.024439   150A      1.030503  
     151A      1.046606   152A      1.051898   153A      1.066503  
     154A      1.071354   155A      1.081271   156A      1.100852  
     157A      1.108487   158A      1.128058   159A      1.134196  
     160A      1.150235   161A      1.159093   162A      1.166612  
     163A      1.175168   164A      1.185279   165A      1.220548  
     166A      1.222043   167A      1.237357   168A      1.268295  
     169A      1.269556   170A      1.294075   171A      1.303342  
     172A      1.311399   173A      1.315478   174A      1.341002  
     175A      1.365807   176A      1.382174   177A      1.401043  
     178A      1.435339   179A      1.445077   180A      1.474691  
     181A      1.493528   182A      1.507393   183A      1.512027  
     184A      1.526129   185A      1.560989   186A      1.590882  
     187A      1.608669   188A      1.637437   189A      1.669472  
     190A      1.677060   191A      1.689234   192A      1.703634  
     193A      1.723950   194A      1.749215   195A      1.764373  
     196A      1.805048   197A      1.875632   198A      1.932390  
     199A      1.943558   200A      1.988067   201A      2.021445  
     202A      2.041398   203A      2.057611   204A      2.088839  
     205A      2.109383   206A      2.135124   207A      2.144687  
     208A      2.168427   209A      2.190005   210A      2.200827  
     211A      2.216942   212A      2.230457   213A      2.234187  
     214A      2.262197   215A      2.275825   216A      2.278067  
     217A      2.289588   218A      2.307640   219A      2.335965  
     220A      2.360716   221A      2.380949   222A      2.389130  
     223A      2.393822   224A      2.394858   225A      2.435246  
     226A      2.444186   227A      2.464967   228A      2.478620  
     229A      2.500264   230A      2.514005   231A      2.531798  
     232A      2.549138   233A      2.570232   234A      2.584716  
     235A      2.631668   236A      2.642961   237A      2.667862  
     238A      2.703360   239A      2.719215   240A      2.733029  
     241A      2.826838   242A      2.828285   243A      2.834751  
     244A      2.870147   245A      2.890351   246A      2.901587  
     247A      2.918598   248A      2.945440   249A      2.999157  
     250A      3.028316   251A      3.055324   252A      3.090093  
     253A      3.092358   254A      3.122730   255A      3.140382  
     256A      3.182232   257A      3.188930   258A      3.222008  
     259A      3.254516   260A      3.289496   261A      3.297865  
     262A      3.356023   263A      3.380235   264A      3.395999  
     265A      3.423753   266A      3.448573   267A      3.487559  
     268A      3.497891   269A      3.520727   270A      3.634012  
     271A      3.667322   272A      3.686563   273A      3.735985  
     274A      3.770496   275A      3.851499   276A      3.889327  
     277A      3.964891   278A      4.036019   279A      4.095133  
     280A      4.209428   281A      4.244435   282A      4.448625  
     283A      4.463235   284A      4.658874   285A      4.708530  
     286A      4.750296   287A      4.811202   288A      4.995219  
     289A      5.077092   290A      5.241608   291A      5.531853  
     292A      5.669408   293A      5.827013   294A      6.107409  
     295A      6.318540   296A      6.707948   297A      6.967876  
     298A     18.111529   299A     18.648422   300A     19.374035  
     301A     25.245839   302A     25.705711  

    Final Occupation by Irrep:
              A 
    DOCC [    18 ]

  @DF-RHF Final Energy:  -224.76233952097598

   => Energetics <=

    Nuclear Repulsion Energy =            166.6240564503272026
    One-Electron Energy =                -633.4992733868036794
    Two-Electron Energy =                 242.1128774155004919
    Total Energy =                       -224.7623395209759849

Computation Completed


Properties will be evaluated at   0.000000,   0.000000,   0.000000 [a0]

Properties computed using the SCF density matrix

  Nuclear Dipole Moment: [e a0]
     X:   162.5886      Y:  -104.5054      Z:    23.1563

  Electronic Dipole Moment: [e a0]
     X:  -162.9913      Y:   105.1370      Z:   -22.5767

  Dipole Moment: [e a0]
     X:    -0.4027      Y:     0.6317      Z:     0.5796     Total:     0.9472

  Dipole Moment: [D]
     X:    -1.0235      Y:     1.6055      Z:     1.4733     Total:     2.4075


*** tstop() called on ds1 at Mon Oct  4 13:46:16 2021
Module time:
	user time   =      15.64 seconds =       0.26 minutes
	system time =       0.34 seconds =       0.01 minutes
	total time  =          4 seconds =       0.07 minutes
Total time:
	user time   =      37.73 seconds =       0.63 minutes
	system time =       0.91 seconds =       0.02 minutes
	total time  =          8 seconds =       0.13 minutes

  //>>>>>>>>>>>>>>>>>>>>>>>>>>>>>>>>>>>//
  //            Monomer B HF           //
  //<<<<<<<<<<<<<<<<<<<<<<<<<<<<<<<<<<<//


*** tstart() called on ds1
*** at Mon Oct  4 13:46:16 2021

   => Loading Basis Set <=

    Name: AUG-CC-PVDZ
    Role: ORBITAL
    Keyword: BASIS
    atoms 1-2, 10-11 entry N          line   218 file /theoryfs2/ds/csargent/miniconda3/envs/cle/share/psi4/basis/aug-cc-pvdz.gbs 
    atoms 3-6, 12-15 entry H          line    40 file /theoryfs2/ds/csargent/miniconda3/envs/cle/share/psi4/basis/aug-cc-pvdz.gbs 
    atoms 7-9, 16-18 entry C          line   182 file /theoryfs2/ds/csargent/miniconda3/envs/cle/share/psi4/basis/aug-cc-pvdz.gbs 


         ---------------------------------------------------------
                                   SCF
               by Justin Turney, Rob Parrish, Andy Simmonett
                          and Daniel G. A. Smith
                              RHF Reference
                        6 Threads,   6675 MiB Core
         ---------------------------------------------------------

  ==> Geometry <==

    Molecular point group: c1
    Full point group: C1

    Geometry (in Bohr), charge = 0, multiplicity = 1:

       Center              X                  Y                   Z               Mass       
    ------------   -----------------  -----------------  -----------------  -----------------
      Gh(N)           6.279812100000    -4.253033720000     0.193138650000    14.003074004430
      Gh(N)           6.068707770000    -2.281256970000     1.805443170000    14.003074004430
      Gh(H)           3.668711560000    -5.646289410000    -1.966840010000     1.007825032230
      Gh(H)           0.690345210000    -2.375456940000    -0.428642360000     1.007825032230
      Gh(H)           3.359174420000     0.176506010000     3.092650170000     1.007825032230
      Gh(H)           7.352667820000    -1.994613110000     2.906807020000     1.007825032230
      Gh(C)           3.779525860000    -1.215084530000     1.768581720000    12.000000000000
      Gh(C)           2.382429980000    -2.555055380000     0.046076810000    12.000000000000
      Gh(C)           4.017714680000    -4.384104900000    -0.887618630000    12.000000000000
         N           41.490280770000    -9.493026270000    11.257333650000    14.003074004430
         N           41.609143040000    -7.455119230000    12.794507370000    14.003074004430
         H           44.163443510000   -11.893936230000    10.539303290000     1.007825032230
         H           47.058080070000    -9.451397490000    13.294440800000     1.007825032230
         H           44.121656000000    -5.738348480000    15.199077110000     1.007825032230
         H           40.146734820000    -6.645142170000    13.180272690000     1.007825032230
         C           43.891979440000    -7.124943560000    13.823556220000    12.000000000000
         C           45.374971870000    -9.054615780000    12.933633750000    12.000000000000
         C           43.813666540000   -10.439783590000    11.341935800000    12.000000000000

  Running in c1 symmetry.

  Rotational constants: A =      0.09004  B =      0.00042  C =      0.00041 [cm^-1]
  Rotational constants: A =   2699.36318  B =     12.48124  C =     12.42719 [MHz]
  Nuclear repulsion =  166.628602757057848

  Charge       = 0
  Multiplicity = 1
  Electrons    = 36
  Nalpha       = 18
  Nbeta        = 18

  ==> Algorithm <==

  SCF Algorithm Type is DF.
  DIIS enabled.
  MOM disabled.
  Fractional occupation disabled.
  Guess Type is SAD.
  Energy threshold   = 1.00e-10
  Density threshold  = 1.00e-10
  Integral threshold = 1.00e-12

  ==> Primary Basis <==

  Basis Set: AUG-CC-PVDZ
    Blend: AUG-CC-PVDZ
    Number of shells: 130
    Number of basis functions: 302
    Number of Cartesian functions: 322
    Spherical Harmonics?: true
    Max angular momentum: 2

   => Loading Basis Set <=

    Name: (AUG-CC-PVDZ AUX)
    Role: JKFIT
    Keyword: DF_BASIS_SCF
    atoms 1-2, 10-11 entry N          line   212 file /theoryfs2/ds/csargent/miniconda3/envs/cle/share/psi4/basis/aug-cc-pvdz-jkfit.gbs 
    atoms 3-6, 12-15 entry H          line    70 file /theoryfs2/ds/csargent/miniconda3/envs/cle/share/psi4/basis/aug-cc-pvdz-jkfit.gbs 
    atoms 7-9, 16-18 entry C          line   154 file /theoryfs2/ds/csargent/miniconda3/envs/cle/share/psi4/basis/aug-cc-pvdz-jkfit.gbs 

  ==> Integral Setup <==

  ==> DiskDFJK: Density-Fitted J/K Matrices <==

    J tasked:                  Yes
    K tasked:                  Yes
    wK tasked:                  No
    OpenMP threads:              6
    Integrals threads:           6
    Memory [MiB]:             5006
    Algorithm:                Core
    Integral Cache:           LOAD
    Schwarz Cutoff:          1E-12
    Fitting Condition:       1E-10

   => Auxiliary Basis Set <=

  Basis Set: (AUG-CC-PVDZ AUX)
    Blend: AUG-CC-PVDZ-JKFIT
    Number of shells: 376
    Number of basis functions: 1116
    Number of Cartesian functions: 1290
    Spherical Harmonics?: true
    Max angular momentum: 3

  Minimum eigenvalue in the overlap matrix is 3.0324469331E-05.
  Reciprocal condition number of the overlap matrix is 2.4867199403E-06.
    Using symmetric orthogonalization.

  ==> Pre-Iterations <==

  SCF Guess: Superposition of Atomic Densities via on-the-fly atomic UHF (no occupation information).

   -------------------------
    Irrep   Nso     Nmo    
   -------------------------
     A        302     302 
   -------------------------
    Total     302     302
   -------------------------

  ==> Iterations <==

                           Total Energy        Delta E     RMS |[F,P]|

   @DF-RHF iter SAD:  -224.72250854311443   -2.24723e+02   0.00000e+00 
   @DF-RHF iter   1:  -224.63556596222134    8.69426e-02   1.50490e-03 DIIS
   @DF-RHF iter   2:  -224.73993304979433   -1.04367e-01   6.88620e-04 DIIS
   @DF-RHF iter   3:  -224.76085080328915   -2.09178e-02   1.48614e-04 DIIS
   @DF-RHF iter   4:  -224.76223500195431   -1.38420e-03   6.05151e-05 DIIS
   @DF-RHF iter   5:  -224.76241324645790   -1.78245e-04   1.19848e-05 DIIS
   @DF-RHF iter   6:  -224.76243017960667   -1.69331e-05   4.96323e-06 DIIS
   @DF-RHF iter   7:  -224.76243412744995   -3.94784e-06   2.18627e-06 DIIS
   @DF-RHF iter   8:  -224.76243488698884   -7.59539e-07   1.01631e-06 DIIS
   @DF-RHF iter   9:  -224.76243505449378   -1.67505e-07   2.83280e-07 DIIS
   @DF-RHF iter  10:  -224.76243506331124   -8.81747e-09   8.55270e-08 DIIS
   @DF-RHF iter  11:  -224.76243506400050   -6.89255e-10   1.99678e-08 DIIS
   @DF-RHF iter  12:  -224.76243506404680   -4.62990e-11   5.80973e-09 DIIS
   @DF-RHF iter  13:  -224.76243506405083   -4.03588e-12   2.83582e-09 DIIS
   @DF-RHF iter  14:  -224.76243506405189   -1.05160e-12   9.79832e-10 DIIS
   @DF-RHF iter  15:  -224.76243506405203   -1.42109e-13   4.16538e-10 DIIS
   @DF-RHF iter  16:  -224.76243506405245   -4.26326e-13   1.25809e-10 DIIS
   @DF-RHF iter  17:  -224.76243506405226    1.98952e-13   4.47601e-11 DIIS
  Energy and wave function converged.


  ==> Post-Iterations <==

    Orbital Energies [Eh]
    ---------------------

    Doubly Occupied:                                                      

       1A    -15.636233     2A    -15.592291     3A    -11.279903  
       4A    -11.237759     5A    -11.209884     6A     -1.387001  
       7A     -1.121894     8A     -1.066928     9A     -0.872759  
      10A     -0.837039    11A     -0.757272    12A     -0.645745  
      13A     -0.620828    14A     -0.609177    15A     -0.583905  
      16A     -0.461413    17A     -0.370715    18A     -0.346055  

    Virtual:                                                              

      19A      0.022934    20A      0.030764    21A      0.040256  
      22A      0.042369    23A      0.044409    24A      0.049158  
      25A      0.063519    26A      0.066113    27A      0.084232  
      28A      0.091027    29A      0.099242    30A      0.101001  
      31A      0.104028    32A      0.117186    33A      0.118594  
      34A      0.126095    35A      0.126272    36A      0.128476  
      37A      0.133070    38A      0.133626    39A      0.134381  
      40A      0.138399    41A      0.141487    42A      0.156889  
      43A      0.158815    44A      0.164594    45A      0.166199  
      46A      0.171081    47A      0.178407    48A      0.179460  
      49A      0.195788    50A      0.196041    51A      0.201791  
      52A      0.204806    53A      0.206166    54A      0.223253  
      55A      0.225395    56A      0.228543    57A      0.235859  
      58A      0.240240    59A      0.243627    60A      0.244965  
      61A      0.264401    62A      0.271138    63A      0.271274  
      64A      0.279081    65A      0.301024    66A      0.322234  
      67A      0.325138    68A      0.340350    69A      0.352355  
      70A      0.355359    71A      0.366818    72A      0.373176  
      73A      0.374909    74A      0.383999    75A      0.396062  
      76A      0.402744    77A      0.415005    78A      0.427751  
      79A      0.432131    80A      0.432328    81A      0.441440  
      82A      0.442580    83A      0.443379    84A      0.453414  
      85A      0.456287    86A      0.457704    87A      0.459816  
      88A      0.462168    89A      0.478656    90A      0.498544  
      91A      0.508693    92A      0.509998    93A      0.519693  
      94A      0.521953    95A      0.533411    96A      0.538334  
      97A      0.541569    98A      0.559603    99A      0.569104  
     100A      0.572111   101A      0.574428   102A      0.586322  
     103A      0.590547   104A      0.595445   105A      0.602431  
     106A      0.613666   107A      0.620974   108A      0.621550  
     109A      0.633817   110A      0.646111   111A      0.655304  
     112A      0.676168   113A      0.691117   114A      0.698039  
     115A      0.700384   116A      0.708112   117A      0.719732  
     118A      0.721648   119A      0.725121   120A      0.735943  
     121A      0.745666   122A      0.747717   123A      0.758643  
     124A      0.773300   125A      0.781476   126A      0.790014  
     127A      0.798397   128A      0.814734   129A      0.821248  
     130A      0.828513   131A      0.838238   132A      0.848382  
     133A      0.852226   134A      0.855381   135A      0.871314  
     136A      0.881369   137A      0.881396   138A      0.888762  
     139A      0.895987   140A      0.906950   141A      0.916450  
     142A      0.924803   143A      0.942599   144A      0.952418  
     145A      0.978204   146A      0.984853   147A      0.997505  
     148A      1.011170   149A      1.024516   150A      1.030589  
     151A      1.046624   152A      1.051982   153A      1.066503  
     154A      1.071428   155A      1.081340   156A      1.100853  
     157A      1.108548   158A      1.128099   159A      1.134152  
     160A      1.150240   161A      1.159166   162A      1.166679  
     163A      1.175167   164A      1.185350   165A      1.220538  
     166A      1.222099   167A      1.237408   168A      1.268386  
     169A      1.269573   170A      1.294138   171A      1.303390  
     172A      1.311431   173A      1.315541   174A      1.341081  
     175A      1.365802   176A      1.382239   177A      1.401039  
     178A      1.435402   179A      1.445123   180A      1.474706  
     181A      1.493619   182A      1.507424   183A      1.512021  
     184A      1.526136   185A      1.560976   186A      1.590889  
     187A      1.608679   188A      1.637435   189A      1.669494  
     190A      1.677129   191A      1.689315   192A      1.703636  
     193A      1.723957   194A      1.749249   195A      1.764367  
     196A      1.805025   197A      1.875589   198A      1.932406  
     199A      1.943562   200A      1.988139   201A      2.021453  
     202A      2.041468   203A      2.057662   204A      2.088810  
     205A      2.109447   206A      2.135238   207A      2.144708  
     208A      2.168497   209A      2.189999   210A      2.200828  
     211A      2.217037   212A      2.230454   213A      2.234255  
     214A      2.262264   215A      2.275832   216A      2.278168  
     217A      2.289661   218A      2.307637   219A      2.336100  
     220A      2.360646   221A      2.381001   222A      2.389121  
     223A      2.393758   224A      2.394929   225A      2.435199  
     226A      2.444270   227A      2.464942   228A      2.478719  
     229A      2.500291   230A      2.514032   231A      2.531785  
     232A      2.549206   233A      2.570195   234A      2.584820  
     235A      2.631746   236A      2.642959   237A      2.667923  
     238A      2.703419   239A      2.719288   240A      2.733013  
     241A      2.826807   242A      2.828322   243A      2.834707  
     244A      2.870203   245A      2.890426   246A      2.901543  
     247A      2.918563   248A      2.945569   249A      2.999195  
     250A      3.028471   251A      3.055311   252A      3.090242  
     253A      3.092440   254A      3.122703   255A      3.140443  
     256A      3.182394   257A      3.189011   258A      3.222030  
     259A      3.254568   260A      3.289636   261A      3.297913  
     262A      3.356195   263A      3.380219   264A      3.396039  
     265A      3.423905   266A      3.448727   267A      3.487584  
     268A      3.497915   269A      3.520764   270A      3.634025  
     271A      3.667375   272A      3.686295   273A      3.736041  
     274A      3.770518   275A      3.851582   276A      3.889250  
     277A      3.964812   278A      4.035958   279A      4.095187  
     280A      4.209312   281A      4.244510   282A      4.448869  
     283A      4.463032   284A      4.658882   285A      4.708474  
     286A      4.750350   287A      4.811213   288A      4.995298  
     289A      5.077245   290A      5.241879   291A      5.531686  
     292A      5.669397   293A      5.827270   294A      6.107144  
     295A      6.318740   296A      6.708820   297A      6.968308  
     298A     18.111605   299A     18.648288   300A     19.373999  
     301A     25.246020   302A     25.705398  

    Final Occupation by Irrep:
              A 
    DOCC [    18 ]

  @DF-RHF Final Energy:  -224.76243506405226

   => Energetics <=

    Nuclear Repulsion Energy =            166.6286027570578483
    One-Electron Energy =                -633.5084733057865378
    Two-Electron Energy =                 242.1174354846764629
    Total Energy =                       -224.7624350640522550

Computation Completed


Properties will be evaluated at   0.000000,   0.000000,   0.000000 [a0]

Properties computed using the SCF density matrix

  Nuclear Dipole Moment: [e a0]
     X:  1555.6696      Y:  -312.0819      Z:   449.1707

  Electronic Dipole Moment: [e a0]
     X: -1555.3787      Y:   312.6459      Z:  -448.4676

  Dipole Moment: [e a0]
     X:     0.2909      Y:     0.5640      Z:     0.7031     Total:     0.9472

  Dipole Moment: [D]
     X:     0.7394      Y:     1.4336      Z:     1.7871     Total:     2.4074


*** tstop() called on ds1 at Mon Oct  4 13:46:19 2021
Module time:
	user time   =      15.93 seconds =       0.27 minutes
	system time =       0.35 seconds =       0.01 minutes
	total time  =          3 seconds =       0.05 minutes
Total time:
	user time   =      53.69 seconds =       0.89 minutes
	system time =       1.26 seconds =       0.02 minutes
	total time  =         11 seconds =       0.18 minutes
  Constructing Basis Sets for SAPT...

   => Loading Basis Set <=

    Name: (AUG-CC-PVDZ AUX)
    Role: RIFIT
    Keyword: DF_BASIS_SAPT
    atoms 1-2, 10-11 entry N          line   158 file /theoryfs2/ds/csargent/miniconda3/envs/cle/share/psi4/basis/aug-cc-pvdz-ri.gbs 
    atoms 3-6, 12-15 entry H          line    30 file /theoryfs2/ds/csargent/miniconda3/envs/cle/share/psi4/basis/aug-cc-pvdz-ri.gbs 
    atoms 7-9, 16-18 entry C          line   112 file /theoryfs2/ds/csargent/miniconda3/envs/cle/share/psi4/basis/aug-cc-pvdz-ri.gbs 


  //>>>>>>>>>>>>>>>>>>>>>>>>>>>>>>>>>>>//
  //               SAPT0               //
  //<<<<<<<<<<<<<<<<<<<<<<<<<<<<<<<<<<<//


*** tstart() called on ds1
*** at Mon Oct  4 13:46:20 2021

        SAPT0  
    Ed Hohenstein
     6 June 2009

      Orbital Information
  --------------------------
    NSO        =       302
    NMO        =       302
    NRI        =       904
    NOCC A     =        18
    NOCC B     =        18
    FOCC A     =         5
    FOCC B     =         5
    NVIR A     =       284
    NVIR B     =       284

    Elst10,r            =     0.000023439054 [Eh]
    Exch10              =     0.000000000000 [Eh]
    Exch10 (S^2)        =     0.000000000000 [Eh]

    Iter     Energy [mEh]          dE [mEh]         Residual      Time [s]
       1      -0.00001015       0.000010152       0.037699233             0
       2      -0.00000927      -0.000000880       0.008968750             0
       3      -0.00001049       0.000001222       0.003431855             0
       4      -0.00001057       0.000000077       0.001520968             0
       5      -0.00001052      -0.000000051       0.000699477             0
       6      -0.00001051      -0.000000006       0.000278865             0
       7      -0.00001052       0.000000003       0.000091195             0
       8      -0.00001052       0.000000002       0.000021567             1
       9      -0.00001052      -0.000000000       0.000008211             1
      10      -0.00001052      -0.000000000       0.000001987             1
      11      -0.00001052       0.000000000       0.000000766             1

    CHF Iterations converged


    Iter     Energy [mEh]          dE [mEh]         Residual      Time [s]
       1      -0.00000870       0.000008697       0.033442837             0
       2      -0.00000797      -0.000000724       0.008090189             0
       3      -0.00000892       0.000000944       0.003214508             0
       4      -0.00000900       0.000000086       0.001247863             0
       5      -0.00000897      -0.000000036       0.000693090             1
       6      -0.00000896      -0.000000009       0.000255746             1
       7      -0.00000896       0.000000003       0.000088502             1
       8      -0.00000896       0.000000002       0.000026850             1
       9      -0.00000896      -0.000000000       0.000006827             1
      10      -0.00000896      -0.000000000       0.000001737             1
      11      -0.00000896       0.000000000       0.000000522             1

    CHF Iterations converged

    Ind20,r (A<-B)      =    -0.000000010519 [Eh]
    Ind20,r (B<-A)      =    -0.000000008962 [Eh]
    Ind20,r             =    -0.000000019481 [Eh]
    Exch-Ind20,r (A<-B) =     0.000000000000 [Eh]
    Exch-Ind20,r (B<-A) =     0.000000000000 [Eh]
    Exch-Ind20,r        =     0.000000000000 [Eh]
    Disp20              =    -0.000000270148 [Eh]
    Disp20 (SS)         =    -0.000000135074 [Eh]
    Disp20 (OS)         =    -0.000000135074 [Eh]
    Exch-Disp20         =     0.000000000000 [Eh]
    Exch-Disp20 (SS)    =     0.000000000000 [Eh]
    Exch-Disp20 (OS)    =     0.000000000000 [Eh]

    SAPT Results 
  --------------------------------------------------------------------------------------------------------
    Electrostatics                  0.02343905 [mEh]       0.01470823 [kcal/mol]       0.06153923 [kJ/mol]
      Elst10,r                      0.02343905 [mEh]       0.01470823 [kcal/mol]       0.06153923 [kJ/mol]

    Exchange                        0.00000000 [mEh]       0.00000000 [kcal/mol]       0.00000000 [kJ/mol]
      Exch10                        0.00000000 [mEh]       0.00000000 [kcal/mol]       0.00000000 [kJ/mol]
      Exch10(S^2)                   0.00000000 [mEh]       0.00000000 [kcal/mol]       0.00000000 [kJ/mol]

    Induction                       0.00002402 [mEh]       0.00001507 [kcal/mol]       0.00006307 [kJ/mol]
      Ind20,r                      -0.00001948 [mEh]      -0.00001222 [kcal/mol]      -0.00005115 [kJ/mol]
      Exch-Ind20,r                  0.00000000 [mEh]       0.00000000 [kcal/mol]       0.00000000 [kJ/mol]
      delta HF,r (2)                0.00004350 [mEh]       0.00002730 [kcal/mol]       0.00011421 [kJ/mol]

    Dispersion                     -0.00027015 [mEh]      -0.00016952 [kcal/mol]      -0.00070927 [kJ/mol]
      Disp20                       -0.00027015 [mEh]      -0.00016952 [kcal/mol]      -0.00070927 [kJ/mol]
      Exch-Disp20                   0.00000000 [mEh]       0.00000000 [kcal/mol]       0.00000000 [kJ/mol]
      Disp20 (SS)                  -0.00013507 [mEh]      -0.00008476 [kcal/mol]      -0.00035464 [kJ/mol]
      Disp20 (OS)                  -0.00013507 [mEh]      -0.00008476 [kcal/mol]      -0.00035464 [kJ/mol]
      Exch-Disp20 (SS)              0.00000000 [mEh]       0.00000000 [kcal/mol]       0.00000000 [kJ/mol]
      Exch-Disp20 (OS)              0.00000000 [mEh]       0.00000000 [kcal/mol]       0.00000000 [kJ/mol]

  Total HF                          0.02346307 [mEh]       0.01472330 [kcal/mol]       0.06160229 [kJ/mol]
  Total SAPT0                       0.02319293 [mEh]       0.01455378 [kcal/mol]       0.06089302 [kJ/mol]

  Special recipe for scaled SAPT0 (see Manual):
    Electrostatics sSAPT0           0.02343905 [mEh]       0.01470823 [kcal/mol]       0.06153923 [kJ/mol]
    Exchange sSAPT0                 0.00000000 [mEh]       0.00000000 [kcal/mol]       0.00000000 [kJ/mol]
    Induction sSAPT0                0.00002402 [mEh]       0.00001507 [kcal/mol]       0.00006307 [kJ/mol]
    Dispersion sSAPT0              -0.00027015 [mEh]      -0.00016952 [kcal/mol]      -0.00070927 [kJ/mol]
  Total sSAPT0                      0.02319293 [mEh]       0.01455378 [kcal/mol]       0.06089302 [kJ/mol]
  --------------------------------------------------------------------------------------------------------

*** tstop() called on ds1 at Mon Oct  4 13:46:29 2021
Module time:
	user time   =      44.17 seconds =       0.74 minutes
	system time =       3.84 seconds =       0.06 minutes
	total time  =          9 seconds =       0.15 minutes
Total time:
	user time   =      98.70 seconds =       1.65 minutes
	system time =       5.13 seconds =       0.09 minutes
	total time  =         21 seconds =       0.35 minutes


Warning! sapt0 does not have an associated derived wavefunction.The returned wavefunction is the dimer SCF wavefunction.


    Psi4 stopped on: Monday, 04 October 2021 01:46PM
    Psi4 wall time for execution: 0:00:21.19

*** Psi4 exiting successfully. Buy a developer a beer!
