
    -----------------------------------------------------------------------
          Psi4: An Open-Source Ab Initio Electronic Structure Package
                               Psi4 1.4rc3 

                         Git: Rev {HEAD} 080dba6 


    D. G. A. Smith, L. A. Burns, A. C. Simmonett, R. M. Parrish,
    M. C. Schieber, R. Galvelis, P. Kraus, H. Kruse, R. Di Remigio,
    A. Alenaizan, A. M. James, S. Lehtola, J. P. Misiewicz, M. Scheurer,
    R. A. Shaw, J. B. Schriber, Y. Xie, Z. L. Glick, D. A. Sirianni,
    J. S. O'Brien, J. M. Waldrop, A. Kumar, E. G. Hohenstein,
    B. P. Pritchard, B. R. Brooks, H. F. Schaefer III, A. Yu. Sokolov,
    K. Patkowski, A. E. DePrince III, U. Bozkaya, R. A. King,
    F. A. Evangelista, J. M. Turney, T. D. Crawford, C. D. Sherrill,
    J. Chem. Phys. 152(18) 184108 (2020). https://doi.org/10.1063/5.0006002

                            Additional Code Authors
    E. T. Seidl, C. L. Janssen, E. F. Valeev, M. L. Leininger,
    J. F. Gonthier, R. M. Richard, H. R. McAlexander, M. Saitow, X. Wang,
    P. Verma, and M. H. Lechner

             Previous Authors, Complete List of Code Contributors,
                       and Citations for Specific Modules
    https://github.com/psi4/psi4/blob/master/codemeta.json
    https://github.com/psi4/psi4/graphs/contributors
    http://psicode.org/psi4manual/master/introduction.html#citing-psifour

    -----------------------------------------------------------------------


    Psi4 started on: Monday, 04 October 2021 02:00PM

    Process ID: 9329
    Host:       ds1
    PSIDATADIR: /theoryfs2/ds/csargent/miniconda3/envs/cle/share/psi4
    Memory:     500.0 MiB
    Threads:    6
    
  ==> Input File <==

--------------------------------------------------------------------------
# PSI4 file produced by CrystaLattE

# Generated from:               pyrazole.xyz
# Psithon input for N-mer:      2mer-0+405
# Number of atoms per monomer:  [9, 9]
# Number of replicas:           1
# COM priority:                 2.196352300455e-05
# Minimum COM separations:      18.896 
# Separation priority:          3.246546295016e-05
# Minimum monomer separations:  16.588 
# Cutoff priority:              1.035687656443e-06
# Nuclear repulsion energy:     369.48597414430355

memory 7 GB

molecule Dimer_0_405 {
  N            6.27981210      -4.25303372       0.19313865 
  N            6.06870777      -2.28125697       1.80544317 
  H            3.66871156      -5.64628941      -1.96684001 
  H            0.69034521      -2.37545694      -0.42864236 
  H            3.35917442       0.17650601       3.09265017 
  H            7.35266782      -1.99461311       2.90680702 
  C            3.77952586      -1.21508453       1.76858172 
  C            2.38242998      -2.55505538       0.04607681 
  C            4.01771468      -4.38410490      -0.88761863 
--
  N           26.01342381      -9.49302627     -27.14001149 
  N           26.13228607      -7.45511923     -25.60283778 
  H           28.68658654     -11.89393623     -27.85804185 
  H           31.58122310      -9.45139749     -25.10290434 
  H           28.64479903      -5.73834848     -23.19826803 
  H           24.66987785      -6.64514217     -25.21707245 
  C           28.41512247      -7.12494356     -24.57378893 
  C           29.89811491      -9.05461578     -25.46371140 
  C           28.33680957     -10.43978359     -27.05540934 
units = au
no_com
no_reorient
}

set {
  e_convergence 10
  d_convergence 10
  scf_type df
  mp2_type df
  cc_type df
  freeze_core true
}

energy('sapt0/aug-cc-pvdz')

--------------------------------------------------------------------------

  Memory set to   6.519 GiB by Python driver.

Scratch directory: /scratch/csargent/psi4.7158.66302/

Scratch directory: /scratch/csargent/psi4.7158.66302/

  //>>>>>>>>>>>>>>>>>>>>>>>>>>>>>>>>>>>//
  //              Dimer HF             //
  //<<<<<<<<<<<<<<<<<<<<<<<<<<<<<<<<<<<//


*** tstart() called on ds1
*** at Mon Oct  4 14:00:54 2021

   => Loading Basis Set <=

    Name: AUG-CC-PVDZ
    Role: ORBITAL
    Keyword: BASIS
    atoms 1-2, 10-11 entry N          line   218 file /theoryfs2/ds/csargent/miniconda3/envs/cle/share/psi4/basis/aug-cc-pvdz.gbs 
    atoms 3-6, 12-15 entry H          line    40 file /theoryfs2/ds/csargent/miniconda3/envs/cle/share/psi4/basis/aug-cc-pvdz.gbs 
    atoms 7-9, 16-18 entry C          line   182 file /theoryfs2/ds/csargent/miniconda3/envs/cle/share/psi4/basis/aug-cc-pvdz.gbs 


         ---------------------------------------------------------
                                   SCF
               by Justin Turney, Rob Parrish, Andy Simmonett
                          and Daniel G. A. Smith
                              RHF Reference
                        6 Threads,   6675 MiB Core
         ---------------------------------------------------------

  ==> Geometry <==

    Molecular point group: c1
    Full point group: C1

    Geometry (in Bohr), charge = 0, multiplicity = 1:

       Center              X                  Y                   Z               Mass       
    ------------   -----------------  -----------------  -----------------  -----------------
         N            6.279812100000    -4.253033720000     0.193138650000    14.003074004430
         N            6.068707770000    -2.281256970000     1.805443170000    14.003074004430
         H            3.668711560000    -5.646289410000    -1.966840010000     1.007825032230
         H            0.690345210000    -2.375456940000    -0.428642360000     1.007825032230
         H            3.359174420000     0.176506010000     3.092650170000     1.007825032230
         H            7.352667820000    -1.994613110000     2.906807020000     1.007825032230
         C            3.779525860000    -1.215084530000     1.768581720000    12.000000000000
         C            2.382429980000    -2.555055380000     0.046076810000    12.000000000000
         C            4.017714680000    -4.384104900000    -0.887618630000    12.000000000000
         N           26.013423810000    -9.493026270000   -27.140011490000    14.003074004430
         N           26.132286070000    -7.455119230000   -25.602837780000    14.003074004430
         H           28.686586540000   -11.893936230000   -27.858041850000     1.007825032230
         H           31.581223100000    -9.451397490000   -25.102904340000     1.007825032230
         H           28.644799030000    -5.738348480000   -23.198268030000     1.007825032230
         H           24.669877850000    -6.645142170000   -25.217072450000     1.007825032230
         C           28.415122470000    -7.124943560000   -24.573788930000    12.000000000000
         C           29.898114910000    -9.054615780000   -25.463711400000    12.000000000000
         C           28.336809570000   -10.439783590000   -27.055409340000    12.000000000000

  Running in c1 symmetry.

  Rotational constants: A =      0.03600  B =      0.00058  C =      0.00057 [cm^-1]
  Rotational constants: A =   1079.34954  B =     17.26706  C =     17.08488 [MHz]
  Nuclear repulsion =  369.485974201964609

  Charge       = 0
  Multiplicity = 1
  Electrons    = 72
  Nalpha       = 36
  Nbeta        = 36

  ==> Algorithm <==

  SCF Algorithm Type is DF.
  DIIS enabled.
  MOM disabled.
  Fractional occupation disabled.
  Guess Type is SAD.
  Energy threshold   = 1.00e-10
  Density threshold  = 1.00e-10
  Integral threshold = 1.00e-12

  ==> Primary Basis <==

  Basis Set: AUG-CC-PVDZ
    Blend: AUG-CC-PVDZ
    Number of shells: 130
    Number of basis functions: 302
    Number of Cartesian functions: 322
    Spherical Harmonics?: true
    Max angular momentum: 2

   => Loading Basis Set <=

    Name: (AUG-CC-PVDZ AUX)
    Role: JKFIT
    Keyword: DF_BASIS_SCF
    atoms 1-2, 10-11 entry N          line   212 file /theoryfs2/ds/csargent/miniconda3/envs/cle/share/psi4/basis/aug-cc-pvdz-jkfit.gbs 
    atoms 3-6, 12-15 entry H          line    70 file /theoryfs2/ds/csargent/miniconda3/envs/cle/share/psi4/basis/aug-cc-pvdz-jkfit.gbs 
    atoms 7-9, 16-18 entry C          line   154 file /theoryfs2/ds/csargent/miniconda3/envs/cle/share/psi4/basis/aug-cc-pvdz-jkfit.gbs 

  ==> Integral Setup <==

  ==> DiskDFJK: Density-Fitted J/K Matrices <==

    J tasked:                  Yes
    K tasked:                  Yes
    wK tasked:                  No
    OpenMP threads:              6
    Integrals threads:           6
    Memory [MiB]:             5006
    Algorithm:                Core
    Integral Cache:           SAVE
    Schwarz Cutoff:          1E-12
    Fitting Condition:       1E-10

   => Auxiliary Basis Set <=

  Basis Set: (AUG-CC-PVDZ AUX)
    Blend: AUG-CC-PVDZ-JKFIT
    Number of shells: 376
    Number of basis functions: 1116
    Number of Cartesian functions: 1290
    Spherical Harmonics?: true
    Max angular momentum: 3

  Minimum eigenvalue in the overlap matrix is 3.0324469267E-05.
  Reciprocal condition number of the overlap matrix is 2.4867199347E-06.
    Using symmetric orthogonalization.

  ==> Pre-Iterations <==

  SCF Guess: Superposition of Atomic Densities via on-the-fly atomic UHF (no occupation information).

   -------------------------
    Irrep   Nso     Nmo    
   -------------------------
     A        302     302 
   -------------------------
    Total     302     302
   -------------------------

  ==> Iterations <==

                           Total Energy        Delta E     RMS |[F,P]|

   @DF-RHF iter SAD:  -449.44445656708564   -4.49444e+02   0.00000e+00 
   @DF-RHF iter   1:  -449.27108524769551    1.73371e-01   2.12807e-03 DIIS
   @DF-RHF iter   2:  -449.47980394750925   -2.08719e-01   9.73639e-04 DIIS
   @DF-RHF iter   3:  -449.52162184679059   -4.18179e-02   2.10142e-04 DIIS
   @DF-RHF iter   4:  -449.52438995367038   -2.76811e-03   8.55594e-05 DIIS
   @DF-RHF iter   5:  -449.52474630375900   -3.56350e-04   1.69508e-05 DIIS
   @DF-RHF iter   6:  -449.52478019136635   -3.38876e-05   7.02118e-06 DIIS
   @DF-RHF iter   7:  -449.52478809632049   -7.90495e-06   3.08960e-06 DIIS
   @DF-RHF iter   8:  -449.52478961485474   -1.51853e-06   1.43759e-06 DIIS
   @DF-RHF iter   9:  -449.52478994955658   -3.34702e-07   4.00312e-07 DIIS
   @DF-RHF iter  10:  -449.52478996716053   -1.76040e-08   1.21000e-07 DIIS
   @DF-RHF iter  11:  -449.52478996853830   -1.37777e-09   2.82228e-08 DIIS
   @DF-RHF iter  12:  -449.52478996863039   -9.20863e-11   8.20707e-09 DIIS
   @DF-RHF iter  13:  -449.52478996863863   -8.24230e-12   3.99870e-09 DIIS
   @DF-RHF iter  14:  -449.52478996864045   -1.81899e-12   1.37755e-09 DIIS
   @DF-RHF iter  15:  -449.52478996864102   -5.68434e-13   5.87020e-10 DIIS
   @DF-RHF iter  16:  -449.52478996864147   -4.54747e-13   1.78961e-10 DIIS
   @DF-RHF iter  17:  -449.52478996864079    6.82121e-13   6.44229e-11 DIIS
  Energy and wave function converged.


  ==> Post-Iterations <==

    Orbital Energies [Eh]
    ---------------------

    Doubly Occupied:                                                      

       1A    -15.636619     2A    -15.635543     3A    -15.592709  
       4A    -15.591615     5A    -11.280280     6A    -11.279220  
       7A    -11.238173     8A    -11.237090     9A    -11.210268  
      10A    -11.209215    11A     -1.387319    12A     -1.386315  
      13A     -1.122296    14A     -1.121210    15A     -1.067284  
      16A     -1.066250    17A     -0.873156    18A     -0.872079  
      19A     -0.837444    20A     -0.836368    21A     -0.757677  
      22A     -0.756589    23A     -0.646134    24A     -0.645068  
      25A     -0.621215    26A     -0.620158    27A     -0.609538  
      28A     -0.608490    29A     -0.584303    30A     -0.583229  
      31A     -0.461805    32A     -0.460736    33A     -0.371113  
      34A     -0.370038    35A     -0.346437    36A     -0.345376  

    Virtual:                                                              

      37A      0.030387    38A      0.031538    39A      0.042079  
      40A      0.042964    41A      0.048785    42A      0.049847  
      43A      0.063184    44A      0.064174    45A      0.100612  
      46A      0.101719    47A      0.103627    48A      0.104698  
      49A      0.116810    50A      0.117819    51A      0.125859  
      52A      0.126948    53A      0.132716    54A      0.133771  
      55A      0.138046    56A      0.139008    57A      0.141180  
      58A      0.142120    59A      0.156562    60A      0.157520  
      61A      0.164268    62A      0.165209    63A      0.170675  
      64A      0.171773    65A      0.178051    66A      0.179067  
      67A      0.195615    68A      0.196773    69A      0.204380  
      70A      0.205520    71A      0.205750    72A      0.206874  
      73A      0.239851    74A      0.240896    75A      0.243220  
      76A      0.244307    77A      0.244557    78A      0.245630  
      79A      0.270721    80A      0.271815    81A      0.278674  
      82A      0.279783    83A      0.300617    84A      0.301659  
      85A      0.324744    86A      0.325823    87A      0.351974  
      88A      0.353046    89A      0.354989    90A      0.356006  
      91A      0.374534    92A      0.375601    93A      0.395692  
      94A      0.396740    95A      0.402357    96A      0.403428  
      97A      0.414658    98A      0.415639    99A      0.431739  
     100A      0.432830   101A      0.443006   102A      0.444044  
     103A      0.452999   104A      0.454092   105A      0.459452  
     106A      0.460490   107A      0.478258   108A      0.479365  
     109A      0.498167   110A      0.499214   111A      0.508317  
     112A      0.509364   113A      0.521540   114A      0.522633  
     115A      0.541185   116A      0.542236   117A      0.574041  
     118A      0.575124   119A      0.585936   120A      0.587004  
     121A      0.590163   122A      0.591222   123A      0.602027  
     124A      0.603112   125A      0.620575   126A      0.621641  
     127A      0.645732   128A      0.646779   129A      0.654933  
     130A      0.655959   131A      0.675784   132A      0.676844  
     133A      0.697667   134A      0.698705   135A      0.700009  
     136A      0.701062   137A      0.721285   138A      0.722325  
     139A      0.724738   140A      0.725800   141A      0.747326  
     142A      0.748394   143A      0.758212   144A      0.759307  
     145A      0.772931   146A      0.773969   147A      0.781080  
     148A      0.782168   149A      0.828113   150A      0.829185  
     151A      0.837845   152A      0.838927   153A      0.848021  
     154A      0.849047   155A      0.881016   156A      0.882053  
     157A      0.888387   158A      0.889439   159A      0.906565  
     160A      0.907622   161A      0.924419   162A      0.925489  
     163A      0.942188   164A      0.943272   165A      0.977846  
     166A      0.978874   167A      0.984465   168A      0.985527  
     169A      1.010743   170A      1.011843   171A      1.046202  
     172A      1.047314   173A      1.066121   174A      1.067171  
     175A      1.100453   176A      1.101548   177A      1.127675  
     178A      1.128766   179A      1.133803   180A      1.134834  
     181A      1.149857   182A      1.150917   183A      1.174785  
     184A      1.175837   185A      1.220156   186A      1.221216  
     187A      1.269167   188A      1.270245   189A      1.302947  
     190A      1.304068   191A      1.311005   192A      1.312119  
     193A      1.365410   194A      1.366481   195A      1.400665  
     196A      1.401704   197A      1.474286   198A      1.475392  
     199A      1.511631   200A      1.512712   201A      1.525747  
     202A      1.526806   203A      1.560604   204A      1.561645  
     205A      1.590505   206A      1.591564   207A      1.608288  
     208A      1.609349   209A      1.637066   210A      1.638103  
     211A      1.669093   212A      1.670164   213A      1.703249  
     214A      1.704320   215A      1.723560   216A      1.724636  
     217A      1.748828   218A      1.749919   219A      1.763984  
     220A      1.765044   221A      1.804661   222A      1.805700  
     223A      1.875251   224A      1.876270   225A      1.932003  
     226A      1.933083   227A      1.943184   228A      1.944229  
     229A      1.987687   230A      1.988803   231A      2.021057  
     232A      2.022130   233A      2.057227   234A      2.058338  
     235A      2.088451   236A      2.089495   237A      2.144299  
     238A      2.145387   239A      2.189621   240A      2.190674  
     241A      2.200445   242A      2.201497   243A      2.230066  
     244A      2.231140   245A      2.275448   246A      2.276496  
     247A      2.307250   248A      2.308321   249A      2.360335  
     250A      2.361317   251A      2.388740   252A      2.389800  
     253A      2.393420   254A      2.394465   255A      2.434845  
     256A      2.435887   257A      2.464565   258A      2.465644  
     259A      2.531406   260A      2.532463   261A      2.569842  
     262A      2.570874   263A      2.584317   264A      2.585517  
     265A      2.642570   266A      2.643644   267A      2.732639  
     268A      2.733701   269A      2.826447   270A      2.827483  
     271A      2.834360   272A      2.835384   273A      2.901192  
     274A      2.902230   275A      2.918199   276A      2.919254  
     277A      2.998769   278A      2.999874   279A      3.054932  
     280A      3.055995   281A      3.091960   282A      3.093121  
     283A      3.122340   284A      3.123383   285A      3.188541  
     286A      3.189681   287A      3.221623   288A      3.222705  
     289A      3.297473   290A      3.298591   291A      3.379855  
     292A      3.380896   293A      3.520333   294A      3.521447  
     295A      3.686181   296A      3.686968   297A      3.888929  
     298A      3.889939   299A      4.209031   300A      4.209993  
     301A      4.462856   302A      4.463702  

    Final Occupation by Irrep:
              A 
    DOCC [    36 ]

  @DF-RHF Final Energy:  -449.52478996864079

   => Energetics <=

    Nuclear Repulsion Energy =            369.4859742019646092
    One-Electron Energy =               -1339.4848107906545920
    Two-Electron Energy =                 520.4740466200491937
    Total Energy =                       -449.5247899686407891

Computation Completed


Properties will be evaluated at   0.000000,   0.000000,   0.000000 [a0]

Properties computed using the SCF density matrix

  Nuclear Dipole Moment: [e a0]
     X:  1161.0913      Y:  -416.5873      Z:  -909.9774

  Electronic Dipole Moment: [e a0]
     X: -1161.2053      Y:   417.7827      Z:   911.2615

  Dipole Moment: [e a0]
     X:    -0.1140      Y:     1.1954      Z:     1.2841     Total:     1.7581

  Dipole Moment: [D]
     X:    -0.2898      Y:     3.0385      Z:     3.2639     Total:     4.4687


*** tstop() called on ds1 at Mon Oct  4 14:00:59 2021
Module time:
	user time   =      22.03 seconds =       0.37 minutes
	system time =       0.53 seconds =       0.01 minutes
	total time  =          5 seconds =       0.08 minutes
Total time:
	user time   =      22.03 seconds =       0.37 minutes
	system time =       0.53 seconds =       0.01 minutes
	total time  =          5 seconds =       0.08 minutes

  //>>>>>>>>>>>>>>>>>>>>>>>>>>>>>>>>>>>//
  //            Monomer A HF           //
  //<<<<<<<<<<<<<<<<<<<<<<<<<<<<<<<<<<<//


*** tstart() called on ds1
*** at Mon Oct  4 14:00:59 2021

   => Loading Basis Set <=

    Name: AUG-CC-PVDZ
    Role: ORBITAL
    Keyword: BASIS
    atoms 1-2, 10-11 entry N          line   218 file /theoryfs2/ds/csargent/miniconda3/envs/cle/share/psi4/basis/aug-cc-pvdz.gbs 
    atoms 3-6, 12-15 entry H          line    40 file /theoryfs2/ds/csargent/miniconda3/envs/cle/share/psi4/basis/aug-cc-pvdz.gbs 
    atoms 7-9, 16-18 entry C          line   182 file /theoryfs2/ds/csargent/miniconda3/envs/cle/share/psi4/basis/aug-cc-pvdz.gbs 


         ---------------------------------------------------------
                                   SCF
               by Justin Turney, Rob Parrish, Andy Simmonett
                          and Daniel G. A. Smith
                              RHF Reference
                        6 Threads,   6675 MiB Core
         ---------------------------------------------------------

  ==> Geometry <==

    Molecular point group: c1
    Full point group: C1

    Geometry (in Bohr), charge = 0, multiplicity = 1:

       Center              X                  Y                   Z               Mass       
    ------------   -----------------  -----------------  -----------------  -----------------
         N            6.279812100000    -4.253033720000     0.193138650000    14.003074004430
         N            6.068707770000    -2.281256970000     1.805443170000    14.003074004430
         H            3.668711560000    -5.646289410000    -1.966840010000     1.007825032230
         H            0.690345210000    -2.375456940000    -0.428642360000     1.007825032230
         H            3.359174420000     0.176506010000     3.092650170000     1.007825032230
         H            7.352667820000    -1.994613110000     2.906807020000     1.007825032230
         C            3.779525860000    -1.215084530000     1.768581720000    12.000000000000
         C            2.382429980000    -2.555055380000     0.046076810000    12.000000000000
         C            4.017714680000    -4.384104900000    -0.887618630000    12.000000000000
      Gh(N)          26.013423810000    -9.493026270000   -27.140011490000    14.003074004430
      Gh(N)          26.132286070000    -7.455119230000   -25.602837780000    14.003074004430
      Gh(H)          28.686586540000   -11.893936230000   -27.858041850000     1.007825032230
      Gh(H)          31.581223100000    -9.451397490000   -25.102904340000     1.007825032230
      Gh(H)          28.644799030000    -5.738348480000   -23.198268030000     1.007825032230
      Gh(H)          24.669877850000    -6.645142170000   -25.217072450000     1.007825032230
      Gh(C)          28.415122470000    -7.124943560000   -24.573788930000    12.000000000000
      Gh(C)          29.898114910000    -9.054615780000   -25.463711400000    12.000000000000
      Gh(C)          28.336809570000   -10.439783590000   -27.055409340000    12.000000000000

  Running in c1 symmetry.

  Rotational constants: A =      0.03600  B =      0.00058  C =      0.00057 [cm^-1]
  Rotational constants: A =   1079.34954  B =     17.26706  C =     17.08488 [MHz]
  Nuclear repulsion =  166.624056450327203

  Charge       = 0
  Multiplicity = 1
  Electrons    = 36
  Nalpha       = 18
  Nbeta        = 18

  ==> Algorithm <==

  SCF Algorithm Type is DF.
  DIIS enabled.
  MOM disabled.
  Fractional occupation disabled.
  Guess Type is SAD.
  Energy threshold   = 1.00e-10
  Density threshold  = 1.00e-10
  Integral threshold = 1.00e-12

  ==> Primary Basis <==

  Basis Set: AUG-CC-PVDZ
    Blend: AUG-CC-PVDZ
    Number of shells: 130
    Number of basis functions: 302
    Number of Cartesian functions: 322
    Spherical Harmonics?: true
    Max angular momentum: 2

   => Loading Basis Set <=

    Name: (AUG-CC-PVDZ AUX)
    Role: JKFIT
    Keyword: DF_BASIS_SCF
    atoms 1-2, 10-11 entry N          line   212 file /theoryfs2/ds/csargent/miniconda3/envs/cle/share/psi4/basis/aug-cc-pvdz-jkfit.gbs 
    atoms 3-6, 12-15 entry H          line    70 file /theoryfs2/ds/csargent/miniconda3/envs/cle/share/psi4/basis/aug-cc-pvdz-jkfit.gbs 
    atoms 7-9, 16-18 entry C          line   154 file /theoryfs2/ds/csargent/miniconda3/envs/cle/share/psi4/basis/aug-cc-pvdz-jkfit.gbs 

  ==> Integral Setup <==

  ==> DiskDFJK: Density-Fitted J/K Matrices <==

    J tasked:                  Yes
    K tasked:                  Yes
    wK tasked:                  No
    OpenMP threads:              6
    Integrals threads:           6
    Memory [MiB]:             5006
    Algorithm:                Core
    Integral Cache:           LOAD
    Schwarz Cutoff:          1E-12
    Fitting Condition:       1E-10

   => Auxiliary Basis Set <=

  Basis Set: (AUG-CC-PVDZ AUX)
    Blend: AUG-CC-PVDZ-JKFIT
    Number of shells: 376
    Number of basis functions: 1116
    Number of Cartesian functions: 1290
    Spherical Harmonics?: true
    Max angular momentum: 3

  Minimum eigenvalue in the overlap matrix is 3.0324469267E-05.
  Reciprocal condition number of the overlap matrix is 2.4867199347E-06.
    Using symmetric orthogonalization.

  ==> Pre-Iterations <==

  SCF Guess: Superposition of Atomic Densities via on-the-fly atomic UHF (no occupation information).

   -------------------------
    Irrep   Nso     Nmo    
   -------------------------
     A        302     302 
   -------------------------
    Total     302     302
   -------------------------

  ==> Iterations <==

                           Total Energy        Delta E     RMS |[F,P]|

   @DF-RHF iter SAD:  -224.72194801272963   -2.24722e+02   0.00000e+00 
   @DF-RHF iter   1:  -224.63549170059446    8.64563e-02   1.50472e-03 DIIS
   @DF-RHF iter   2:  -224.73984613340062   -1.04354e-01   6.88462e-04 DIIS
   @DF-RHF iter   3:  -224.76075487228576   -2.09087e-02   1.48626e-04 DIIS
   @DF-RHF iter   4:  -224.76213931606770   -1.38444e-03   6.05310e-05 DIIS
   @DF-RHF iter   5:  -224.76231767082683   -1.78355e-04   1.19893e-05 DIIS
   @DF-RHF iter   6:  -224.76233462830049   -1.69575e-05   4.96772e-06 DIIS
   @DF-RHF iter   7:  -224.76233858433849   -3.95604e-06   2.18806e-06 DIIS
   @DF-RHF iter   8:  -224.76233934508014   -7.60742e-07   1.01700e-06 DIIS
   @DF-RHF iter   9:  -224.76233951272249   -1.67642e-07   2.83302e-07 DIIS
   @DF-RHF iter  10:  -224.76233952154348   -8.82099e-09   8.55547e-08 DIIS
   @DF-RHF iter  11:  -224.76233952223279   -6.89312e-10   1.99714e-08 DIIS
   @DF-RHF iter  12:  -224.76233952227875   -4.59579e-11   5.81092e-09 DIIS
   @DF-RHF iter  13:  -224.76233952228318   -4.43379e-12   2.83097e-09 DIIS
   @DF-RHF iter  14:  -224.76233952228381   -6.25278e-13   9.75191e-10 DIIS
   @DF-RHF iter  15:  -224.76233952228432   -5.11591e-13   4.15548e-10 DIIS
   @DF-RHF iter  16:  -224.76233952228424    8.52651e-14   1.25998e-10 DIIS
   @DF-RHF iter  17:  -224.76233952228449   -2.55795e-13   4.47777e-11 DIIS
  Energy and wave function converged.


  ==> Post-Iterations <==

    Orbital Energies [Eh]
    ---------------------

    Doubly Occupied:                                                      

       1A    -15.636223     2A    -15.592313     3A    -11.279894  
       4A    -11.237784     5A    -11.209891     6A     -1.386922  
       7A     -1.121901     8A     -1.066898     9A     -0.872768  
      10A     -0.837061    11A     -0.757292    12A     -0.645746  
      13A     -0.620834    14A     -0.609140    15A     -0.583920  
      16A     -0.461404    17A     -0.370721    18A     -0.346048  

    Virtual:                                                              

      19A      0.023386    20A      0.030764    21A      0.040718  
      22A      0.042368    23A      0.044839    24A      0.049159  
      25A      0.063520    26A      0.066582    27A      0.084683  
      28A      0.091471    29A      0.099640    30A      0.100998  
      31A      0.104029    32A      0.117179    33A      0.119009  
      34A      0.126270    35A      0.126536    36A      0.128922  
      37A      0.133069    38A      0.134056    39A      0.134850  
      40A      0.138403    41A      0.141490    42A      0.156889  
      43A      0.159188    44A      0.164592    45A      0.166650  
      46A      0.171075    47A      0.178408    48A      0.179895  
      49A      0.196042    50A      0.196252    51A      0.202253  
      52A      0.204793    53A      0.206162    54A      0.223692  
      55A      0.225820    56A      0.228952    57A      0.236310  
      58A      0.240236    59A      0.243626    60A      0.244965  
      61A      0.264764    62A      0.271127    63A      0.271752  
      64A      0.279080    65A      0.301010    66A      0.322638  
      67A      0.325148    68A      0.340805    69A      0.352358  
      70A      0.355357    71A      0.367268    72A      0.373594  
      73A      0.374907    74A      0.384431    75A      0.396061  
      76A      0.402741    77A      0.414998    78A      0.428218  
      79A      0.432132    80A      0.432788    81A      0.441872  
      82A      0.443032    83A      0.443385    84A      0.453393  
      85A      0.456760    86A      0.458139    87A      0.459816  
      88A      0.462615    89A      0.478655    90A      0.498543  
      91A      0.508690    92A      0.510465    93A      0.520183  
      94A      0.521917    95A      0.533895    96A      0.538745  
      97A      0.541560    98A      0.560052    99A      0.569607  
     100A      0.572549   101A      0.574432   102A      0.586318  
     103A      0.590538   104A      0.595866   105A      0.602413  
     106A      0.614076   107A      0.620953   108A      0.621990  
     109A      0.634259   110A      0.646110   111A      0.655295  
     112A      0.676162   113A      0.691549   114A      0.698041  
     115A      0.700391   116A      0.708528   117A      0.720185  
     118A      0.721667   119A      0.725115   120A      0.736404  
     121A      0.746081   122A      0.747709   123A      0.758592  
     124A      0.773318   125A      0.781481   126A      0.790434  
     127A      0.798870   128A      0.815158   129A      0.821656  
     130A      0.828504   131A      0.838230   132A      0.848394  
     133A      0.852666   134A      0.855846   135A      0.871722  
     136A      0.881395   137A      0.881818   138A      0.888767  
     139A      0.896429   140A      0.906950   141A      0.916905  
     142A      0.924815   143A      0.942582   144A      0.952868  
     145A      0.978222   146A      0.984850   147A      0.997945  
     148A      1.011149   149A      1.024929   150A      1.031022  
     151A      1.046606   152A      1.052433   153A      1.066503  
     154A      1.071880   155A      1.081737   156A      1.100852  
     157A      1.109013   158A      1.128058   159A      1.134196  
     160A      1.150235   161A      1.159625   162A      1.167113  
     163A      1.175168   164A      1.185783   165A      1.220548  
     166A      1.222597   167A      1.237896   168A      1.268810  
     169A      1.269556   170A      1.294606   171A      1.303342  
     172A      1.311399   173A      1.315984   174A      1.341503  
     175A      1.365807   176A      1.382669   177A      1.401043  
     178A      1.435869   179A      1.445613   180A      1.474691  
     181A      1.494070   182A      1.507927   183A      1.512027  
     184A      1.526129   185A      1.560989   186A      1.590882  
     187A      1.608669   188A      1.637437   189A      1.669472  
     190A      1.677584   191A      1.689759   192A      1.703634  
     193A      1.723950   194A      1.749215   195A      1.764373  
     196A      1.805048   197A      1.875632   198A      1.932390  
     199A      1.943558   200A      1.988067   201A      2.021445  
     202A      2.041893   203A      2.057611   204A      2.088839  
     205A      2.109928   206A      2.135621   207A      2.144687  
     208A      2.168926   209A      2.190005   210A      2.200827  
     211A      2.217458   212A      2.230457   213A      2.234679  
     214A      2.262698   215A      2.275825   216A      2.278540  
     217A      2.290097   218A      2.307640   219A      2.336489  
     220A      2.360716   221A      2.381412   222A      2.389130  
     223A      2.393822   224A      2.395389   225A      2.435246  
     226A      2.444712   227A      2.464967   228A      2.479122  
     229A      2.500753   230A      2.514579   231A      2.531798  
     232A      2.549657   233A      2.570232   234A      2.584716  
     235A      2.632182   236A      2.642961   237A      2.668401  
     238A      2.703911   239A      2.719742   240A      2.733029  
     241A      2.826838   242A      2.828784   243A      2.834751  
     244A      2.870719   245A      2.890870   246A      2.901587  
     247A      2.918598   248A      2.945946   249A      2.999157  
     250A      3.028838   251A      3.055324   252A      3.090616  
     253A      3.092358   254A      3.122730   255A      3.140889  
     256A      3.182747   257A      3.188930   258A      3.222008  
     259A      3.255036   260A      3.290000   261A      3.297865  
     262A      3.356552   263A      3.380235   264A      3.396512  
     265A      3.424317   266A      3.449073   267A      3.488073  
     268A      3.498402   269A      3.520727   270A      3.634499  
     271A      3.667846   272A      3.686563   273A      3.736495  
     274A      3.771029   275A      3.852066   276A      3.889327  
     277A      3.965406   278A      4.036550   279A      4.095661  
     280A      4.209428   281A      4.244966   282A      4.449133  
     283A      4.463235   284A      4.659378   285A      4.709073  
     286A      4.750811   287A      4.811730   288A      4.995735  
     289A      5.077614   290A      5.242130   291A      5.532365  
     292A      5.669946   293A      5.827554   294A      6.107926  
     295A      6.319027   296A      6.708442   297A      6.968413  
     298A     18.112020   299A     18.648923   300A     19.374550  
     301A     25.246351   302A     25.706260  

    Final Occupation by Irrep:
              A 
    DOCC [    18 ]

  @DF-RHF Final Energy:  -224.76233952228449

   => Energetics <=

    Nuclear Repulsion Energy =            166.6240564503272026
    One-Electron Energy =                -633.4992733902239479
    Two-Electron Energy =                 242.1128774176122533
    Total Energy =                       -224.7623395222844920

Computation Completed


Properties will be evaluated at   0.000000,   0.000000,   0.000000 [a0]

Properties computed using the SCF density matrix

  Nuclear Dipole Moment: [e a0]
     X:   162.5886      Y:  -104.5054      Z:    23.1563

  Electronic Dipole Moment: [e a0]
     X:  -162.9913      Y:   105.1370      Z:   -22.5767

  Dipole Moment: [e a0]
     X:    -0.4027      Y:     0.6317      Z:     0.5796     Total:     0.9472

  Dipole Moment: [D]
     X:    -1.0235      Y:     1.6055      Z:     1.4733     Total:     2.4075


*** tstop() called on ds1 at Mon Oct  4 14:01:03 2021
Module time:
	user time   =      16.08 seconds =       0.27 minutes
	system time =       0.42 seconds =       0.01 minutes
	total time  =          4 seconds =       0.07 minutes
Total time:
	user time   =      38.27 seconds =       0.64 minutes
	system time =       0.95 seconds =       0.02 minutes
	total time  =          9 seconds =       0.15 minutes

  //>>>>>>>>>>>>>>>>>>>>>>>>>>>>>>>>>>>//
  //            Monomer B HF           //
  //<<<<<<<<<<<<<<<<<<<<<<<<<<<<<<<<<<<//


*** tstart() called on ds1
*** at Mon Oct  4 14:01:03 2021

   => Loading Basis Set <=

    Name: AUG-CC-PVDZ
    Role: ORBITAL
    Keyword: BASIS
    atoms 1-2, 10-11 entry N          line   218 file /theoryfs2/ds/csargent/miniconda3/envs/cle/share/psi4/basis/aug-cc-pvdz.gbs 
    atoms 3-6, 12-15 entry H          line    40 file /theoryfs2/ds/csargent/miniconda3/envs/cle/share/psi4/basis/aug-cc-pvdz.gbs 
    atoms 7-9, 16-18 entry C          line   182 file /theoryfs2/ds/csargent/miniconda3/envs/cle/share/psi4/basis/aug-cc-pvdz.gbs 


         ---------------------------------------------------------
                                   SCF
               by Justin Turney, Rob Parrish, Andy Simmonett
                          and Daniel G. A. Smith
                              RHF Reference
                        6 Threads,   6675 MiB Core
         ---------------------------------------------------------

  ==> Geometry <==

    Molecular point group: c1
    Full point group: C1

    Geometry (in Bohr), charge = 0, multiplicity = 1:

       Center              X                  Y                   Z               Mass       
    ------------   -----------------  -----------------  -----------------  -----------------
      Gh(N)           6.279812100000    -4.253033720000     0.193138650000    14.003074004430
      Gh(N)           6.068707770000    -2.281256970000     1.805443170000    14.003074004430
      Gh(H)           3.668711560000    -5.646289410000    -1.966840010000     1.007825032230
      Gh(H)           0.690345210000    -2.375456940000    -0.428642360000     1.007825032230
      Gh(H)           3.359174420000     0.176506010000     3.092650170000     1.007825032230
      Gh(H)           7.352667820000    -1.994613110000     2.906807020000     1.007825032230
      Gh(C)           3.779525860000    -1.215084530000     1.768581720000    12.000000000000
      Gh(C)           2.382429980000    -2.555055380000     0.046076810000    12.000000000000
      Gh(C)           4.017714680000    -4.384104900000    -0.887618630000    12.000000000000
         N           26.013423810000    -9.493026270000   -27.140011490000    14.003074004430
         N           26.132286070000    -7.455119230000   -25.602837780000    14.003074004430
         H           28.686586540000   -11.893936230000   -27.858041850000     1.007825032230
         H           31.581223100000    -9.451397490000   -25.102904340000     1.007825032230
         H           28.644799030000    -5.738348480000   -23.198268030000     1.007825032230
         H           24.669877850000    -6.645142170000   -25.217072450000     1.007825032230
         C           28.415122470000    -7.124943560000   -24.573788930000    12.000000000000
         C           29.898114910000    -9.054615780000   -25.463711400000    12.000000000000
         C           28.336809570000   -10.439783590000   -27.055409340000    12.000000000000

  Running in c1 symmetry.

  Rotational constants: A =      0.03600  B =      0.00058  C =      0.00057 [cm^-1]
  Rotational constants: A =   1079.34954  B =     17.26706  C =     17.08488 [MHz]
  Nuclear repulsion =  166.628602872532980

  Charge       = 0
  Multiplicity = 1
  Electrons    = 36
  Nalpha       = 18
  Nbeta        = 18

  ==> Algorithm <==

  SCF Algorithm Type is DF.
  DIIS enabled.
  MOM disabled.
  Fractional occupation disabled.
  Guess Type is SAD.
  Energy threshold   = 1.00e-10
  Density threshold  = 1.00e-10
  Integral threshold = 1.00e-12

  ==> Primary Basis <==

  Basis Set: AUG-CC-PVDZ
    Blend: AUG-CC-PVDZ
    Number of shells: 130
    Number of basis functions: 302
    Number of Cartesian functions: 322
    Spherical Harmonics?: true
    Max angular momentum: 2

   => Loading Basis Set <=

    Name: (AUG-CC-PVDZ AUX)
    Role: JKFIT
    Keyword: DF_BASIS_SCF
    atoms 1-2, 10-11 entry N          line   212 file /theoryfs2/ds/csargent/miniconda3/envs/cle/share/psi4/basis/aug-cc-pvdz-jkfit.gbs 
    atoms 3-6, 12-15 entry H          line    70 file /theoryfs2/ds/csargent/miniconda3/envs/cle/share/psi4/basis/aug-cc-pvdz-jkfit.gbs 
    atoms 7-9, 16-18 entry C          line   154 file /theoryfs2/ds/csargent/miniconda3/envs/cle/share/psi4/basis/aug-cc-pvdz-jkfit.gbs 

  ==> Integral Setup <==

  ==> DiskDFJK: Density-Fitted J/K Matrices <==

    J tasked:                  Yes
    K tasked:                  Yes
    wK tasked:                  No
    OpenMP threads:              6
    Integrals threads:           6
    Memory [MiB]:             5006
    Algorithm:                Core
    Integral Cache:           LOAD
    Schwarz Cutoff:          1E-12
    Fitting Condition:       1E-10

   => Auxiliary Basis Set <=

  Basis Set: (AUG-CC-PVDZ AUX)
    Blend: AUG-CC-PVDZ-JKFIT
    Number of shells: 376
    Number of basis functions: 1116
    Number of Cartesian functions: 1290
    Spherical Harmonics?: true
    Max angular momentum: 3

  Minimum eigenvalue in the overlap matrix is 3.0324469267E-05.
  Reciprocal condition number of the overlap matrix is 2.4867199347E-06.
    Using symmetric orthogonalization.

  ==> Pre-Iterations <==

  SCF Guess: Superposition of Atomic Densities via on-the-fly atomic UHF (no occupation information).

   -------------------------
    Irrep   Nso     Nmo    
   -------------------------
     A        302     302 
   -------------------------
    Total     302     302
   -------------------------

  ==> Iterations <==

                           Total Energy        Delta E     RMS |[F,P]|

   @DF-RHF iter SAD:  -224.72250855395225   -2.24723e+02   0.00000e+00 
   @DF-RHF iter   1:  -224.63556596060366    8.69426e-02   1.50490e-03 DIIS
   @DF-RHF iter   2:  -224.73993304865573   -1.04367e-01   6.88620e-04 DIIS
   @DF-RHF iter   3:  -224.76085080239181   -2.09178e-02   1.48614e-04 DIIS
   @DF-RHF iter   4:  -224.76223500106403   -1.38420e-03   6.05151e-05 DIIS
   @DF-RHF iter   5:  -224.76241324556858   -1.78245e-04   1.19848e-05 DIIS
   @DF-RHF iter   6:  -224.76243017871764   -1.69331e-05   4.96323e-06 DIIS
   @DF-RHF iter   7:  -224.76243412656117   -3.94784e-06   2.18627e-06 DIIS
   @DF-RHF iter   8:  -224.76243488609947   -7.59538e-07   1.01631e-06 DIIS
   @DF-RHF iter   9:  -224.76243505360463   -1.67505e-07   2.83280e-07 DIIS
   @DF-RHF iter  10:  -224.76243506242221   -8.81758e-09   8.55270e-08 DIIS
   @DF-RHF iter  11:  -224.76243506311172   -6.89511e-10   1.99678e-08 DIIS
   @DF-RHF iter  12:  -224.76243506315791   -4.61853e-11   5.80973e-09 DIIS
   @DF-RHF iter  13:  -224.76243506316212   -4.20641e-12   2.83582e-09 DIIS
   @DF-RHF iter  14:  -224.76243506316277   -6.53699e-13   9.79833e-10 DIIS
   @DF-RHF iter  15:  -224.76243506316337   -5.96856e-13   4.16538e-10 DIIS
   @DF-RHF iter  16:  -224.76243506316337    0.00000e+00   1.25809e-10 DIIS
   @DF-RHF iter  17:  -224.76243506316331    5.68434e-14   4.47604e-11 DIIS
  Energy and wave function converged.


  ==> Post-Iterations <==

    Orbital Energies [Eh]
    ---------------------

    Doubly Occupied:                                                      

       1A    -15.636233     2A    -15.592291     3A    -11.279903  
       4A    -11.237759     5A    -11.209884     6A     -1.387001  
       7A     -1.121894     8A     -1.066928     9A     -0.872759  
      10A     -0.837039    11A     -0.757272    12A     -0.645745  
      13A     -0.620828    14A     -0.609177    15A     -0.583905  
      16A     -0.461413    17A     -0.370715    18A     -0.346055  

    Virtual:                                                              

      19A      0.022340    20A      0.030764    21A      0.039719  
      22A      0.042369    23A      0.043807    24A      0.049158  
      25A      0.063519    26A      0.065552    27A      0.083612  
      28A      0.090415    29A      0.098602    30A      0.101001  
      31A      0.104028    32A      0.117186    33A      0.118016  
      34A      0.125528    35A      0.126272    36A      0.127937  
      37A      0.133023    38A      0.133070    39A      0.133814  
      40A      0.138399    41A      0.141487    42A      0.156889  
      43A      0.158248    44A      0.164594    45A      0.165619  
      46A      0.171081    47A      0.178407    48A      0.178839  
      49A      0.195128    50A      0.196040    51A      0.201116  
      52A      0.204806    53A      0.206166    54A      0.222560  
      55A      0.224784    56A      0.227917    57A      0.235210  
      58A      0.240240    59A      0.243627    60A      0.244965  
      61A      0.263716    62A      0.270634    63A      0.271138  
      64A      0.279081    65A      0.301024    66A      0.321580  
      67A      0.325138    68A      0.339749    69A      0.352354  
      70A      0.355359    71A      0.366188    72A      0.372580  
      73A      0.374909    74A      0.383404    75A      0.396062  
      76A      0.402744    77A      0.415005    78A      0.427143  
      79A      0.431744    80A      0.432131    81A      0.440885  
      82A      0.442027    83A      0.443379    84A      0.453414  
      85A      0.455667    86A      0.457104    87A      0.459816  
      88A      0.461535    89A      0.478656    90A      0.498544  
      91A      0.508693    92A      0.509387    93A      0.519078  
      94A      0.521953    95A      0.532783    96A      0.537740  
      97A      0.541569    98A      0.559004    99A      0.568460  
     100A      0.571532   101A      0.574428   102A      0.586322  
     103A      0.590547   104A      0.594862   105A      0.602431  
     106A      0.613048   107A      0.620915   108A      0.620974  
     109A      0.633197   110A      0.646111   111A      0.655304  
     112A      0.676168   113A      0.690524   114A      0.698039  
     115A      0.700384   116A      0.707471   117A      0.719134  
     118A      0.721648   119A      0.725121   120A      0.735365  
     121A      0.745056   122A      0.747717   123A      0.758643  
     124A      0.773300   125A      0.781476   126A      0.789380  
     127A      0.797780   128A      0.814136   129A      0.820607  
     130A      0.828513   131A      0.838238   132A      0.848382  
     133A      0.851643   134A      0.854785   135A      0.870717  
     136A      0.880774   137A      0.881396   138A      0.888762  
     139A      0.895384   140A      0.906950   141A      0.915825  
     142A      0.924803   143A      0.942599   144A      0.951779  
     145A      0.978204   146A      0.984853   147A      0.996872  
     148A      1.011170   149A      1.023896   150A      1.029932  
     151A      1.046624   152A      1.051344   153A      1.066503  
     154A      1.070872   155A      1.080730   156A      1.100853  
     157A      1.107898   158A      1.128099   159A      1.134152  
     160A      1.150240   161A      1.158507   162A      1.166025  
     163A      1.175167   164A      1.184720   165A      1.220538  
     166A      1.221432   167A      1.236769   168A      1.267730  
     169A      1.269573   170A      1.293456   171A      1.303390  
     172A      1.311430   173A      1.314891   174A      1.340445  
     175A      1.365802   176A      1.381594   177A      1.401039  
     178A      1.434730   179A      1.444465   180A      1.474706  
     181A      1.492973   182A      1.506773   183A      1.512021  
     184A      1.526136   185A      1.560976   186A      1.590889  
     187A      1.608679   188A      1.637435   189A      1.669494  
     190A      1.676462   191A      1.688641   192A      1.703636  
     193A      1.723957   194A      1.749249   195A      1.764367  
     196A      1.805025   197A      1.875589   198A      1.932406  
     199A      1.943562   200A      1.988139   201A      2.021453  
     202A      2.040880   203A      2.057662   204A      2.088810  
     205A      2.108878   206A      2.134648   207A      2.144708  
     208A      2.167944   209A      2.189999   210A      2.200828  
     211A      2.216442   212A      2.230454   213A      2.233671  
     214A      2.261670   215A      2.275832   216A      2.277566  
     217A      2.289070   218A      2.307637   219A      2.335508  
     220A      2.360646   221A      2.380384   222A      2.389121  
     223A      2.393758   224A      2.394337   225A      2.435199  
     226A      2.443682   227A      2.464942   228A      2.478137  
     229A      2.499723   230A      2.513363   231A      2.531785  
     232A      2.548632   233A      2.570195   234A      2.584820  
     235A      2.631136   236A      2.642959   237A      2.667307  
     238A      2.702799   239A      2.718689   240A      2.733013  
     241A      2.826807   242A      2.827717   243A      2.834707  
     244A      2.869573   245A      2.889832   246A      2.901543  
     247A      2.918563   248A      2.944943   249A      2.999195  
     250A      3.027869   251A      3.055311   252A      3.089617  
     253A      3.092440   254A      3.122703   255A      3.139838  
     256A      3.181762   257A      3.189011   258A      3.222030  
     259A      3.253917   260A      3.288969   261A      3.297913  
     262A      3.355535   263A      3.380219   264A      3.395371  
     265A      3.423255   266A      3.448093   267A      3.486954  
     268A      3.497320   269A      3.520764   270A      3.633330  
     271A      3.666729   272A      3.686295   273A      3.735413  
     274A      3.769848   275A      3.850917   276A      3.889250  
     277A      3.964200   278A      4.035271   279A      4.094533  
     280A      4.209312   281A      4.243871   282A      4.448216  
     283A      4.463032   284A      4.658185   285A      4.707813  
     286A      4.749738   287A      4.810565   288A      4.994659  
     289A      5.076581   290A      5.241243   291A      5.531029  
     292A      5.668722   293A      5.826637   294A      6.106481  
     295A      6.318158   296A      6.708196   297A      6.967649  
     298A     18.111011   299A     18.647674   300A     19.373414  
     301A     25.245316   302A     25.704713  

    Final Occupation by Irrep:
              A 
    DOCC [    18 ]

  @DF-RHF Final Energy:  -224.76243506316331

   => Energetics <=

    Nuclear Repulsion Energy =            166.6286028725329800
    One-Electron Energy =                -633.5084735317850573
    Two-Electron Energy =                 242.1174355960887965
    Total Energy =                       -224.7624350631633092

Computation Completed


Properties will be evaluated at   0.000000,   0.000000,   0.000000 [a0]

Properties computed using the SCF density matrix

  Nuclear Dipole Moment: [e a0]
     X:   998.5027      Y:  -312.0819      Z:  -933.1337

  Electronic Dipole Moment: [e a0]
     X:  -998.2118      Y:   312.6459      Z:   933.8368

  Dipole Moment: [e a0]
     X:     0.2909      Y:     0.5640      Z:     0.7031     Total:     0.9472

  Dipole Moment: [D]
     X:     0.7394      Y:     1.4336      Z:     1.7871     Total:     2.4074


*** tstop() called on ds1 at Mon Oct  4 14:01:06 2021
Module time:
	user time   =      15.58 seconds =       0.26 minutes
	system time =       0.33 seconds =       0.01 minutes
	total time  =          3 seconds =       0.05 minutes
Total time:
	user time   =      53.96 seconds =       0.90 minutes
	system time =       1.29 seconds =       0.02 minutes
	total time  =         12 seconds =       0.20 minutes
  Constructing Basis Sets for SAPT...

   => Loading Basis Set <=

    Name: (AUG-CC-PVDZ AUX)
    Role: RIFIT
    Keyword: DF_BASIS_SAPT
    atoms 1-2, 10-11 entry N          line   158 file /theoryfs2/ds/csargent/miniconda3/envs/cle/share/psi4/basis/aug-cc-pvdz-ri.gbs 
    atoms 3-6, 12-15 entry H          line    30 file /theoryfs2/ds/csargent/miniconda3/envs/cle/share/psi4/basis/aug-cc-pvdz-ri.gbs 
    atoms 7-9, 16-18 entry C          line   112 file /theoryfs2/ds/csargent/miniconda3/envs/cle/share/psi4/basis/aug-cc-pvdz-ri.gbs 


  //>>>>>>>>>>>>>>>>>>>>>>>>>>>>>>>>>>>//
  //               SAPT0               //
  //<<<<<<<<<<<<<<<<<<<<<<<<<<<<<<<<<<<//


*** tstart() called on ds1
*** at Mon Oct  4 14:01:06 2021

        SAPT0  
    Ed Hohenstein
     6 June 2009

      Orbital Information
  --------------------------
    NSO        =       302
    NMO        =       302
    NRI        =       904
    NOCC A     =        18
    NOCC B     =        18
    FOCC A     =         5
    FOCC B     =         5
    NVIR A     =       284
    NVIR B     =       284

    Elst10,r            =    -0.000015383416 [Eh]
    Exch10              =     0.000000000000 [Eh]
    Exch10 (S^2)        =     0.000000000000 [Eh]

    Iter     Energy [mEh]          dE [mEh]         Residual      Time [s]
       1      -0.00002027       0.000020267       0.048657197             0
       2      -0.00001833      -0.000001938       0.011901539             0
       3      -0.00001956       0.000001230       0.005655773             1
       4      -0.00002010       0.000000540       0.001123772             1
       5      -0.00002004      -0.000000063       0.000707028             1
       6      -0.00002002      -0.000000018       0.000242812             1
       7      -0.00002002       0.000000007       0.000096638             1
       8      -0.00002003       0.000000002       0.000034164             1
       9      -0.00002003      -0.000000000       0.000011364             1
      10      -0.00002003      -0.000000000       0.000002757             1
      11      -0.00002003       0.000000000       0.000001156             2
      12      -0.00002003       0.000000000       0.000000418             2

    CHF Iterations converged


    Iter     Energy [mEh]          dE [mEh]         Residual      Time [s]
       1      -0.00003225       0.000032249       0.057089450             0
       2      -0.00002934      -0.000002913       0.013909504             0
       3      -0.00003110       0.000001767       0.006473116             0
       4      -0.00003188       0.000000776       0.001200126             0
       5      -0.00003182      -0.000000059       0.000596262             0
       6      -0.00003179      -0.000000030       0.000193990             0
       7      -0.00003179       0.000000003       0.000082211             1
       8      -0.00003180       0.000000003       0.000036690             1
       9      -0.00003180       0.000000000       0.000010619             1
      10      -0.00003180      -0.000000001       0.000002567             1
      11      -0.00003180       0.000000000       0.000001077             1
      12      -0.00003180       0.000000000       0.000000351             1

    CHF Iterations converged

    Ind20,r (A<-B)      =    -0.000000020026 [Eh]
    Ind20,r (B<-A)      =    -0.000000031795 [Eh]
    Ind20,r             =    -0.000000051821 [Eh]
    Exch-Ind20,r (A<-B) =     0.000000000000 [Eh]
    Exch-Ind20,r (B<-A) =     0.000000000000 [Eh]
    Exch-Ind20,r        =     0.000000000000 [Eh]
    Disp20              =    -0.000000527715 [Eh]
    Disp20 (SS)         =    -0.000000263857 [Eh]
    Disp20 (OS)         =    -0.000000263857 [Eh]
    Exch-Disp20         =     0.000000000000 [Eh]
    Exch-Disp20 (SS)    =     0.000000000000 [Eh]
    Exch-Disp20 (OS)    =     0.000000000000 [Eh]

    SAPT Results 
  --------------------------------------------------------------------------------------------------------
    Electrostatics                 -0.01538342 [mEh]      -0.00965324 [kcal/mol]      -0.04038915 [kJ/mol]
      Elst10,r                     -0.01538342 [mEh]      -0.00965324 [kcal/mol]      -0.04038915 [kJ/mol]

    Exchange                        0.00000000 [mEh]       0.00000000 [kcal/mol]       0.00000000 [kJ/mol]
      Exch10                        0.00000000 [mEh]       0.00000000 [kcal/mol]       0.00000000 [kJ/mol]
      Exch10(S^2)                   0.00000000 [mEh]       0.00000000 [kcal/mol]       0.00000000 [kJ/mol]

    Induction                       0.00000022 [mEh]       0.00000014 [kcal/mol]       0.00000059 [kJ/mol]
      Ind20,r                      -0.00005182 [mEh]      -0.00003252 [kcal/mol]      -0.00013606 [kJ/mol]
      Exch-Ind20,r                  0.00000000 [mEh]       0.00000000 [kcal/mol]       0.00000000 [kJ/mol]
      delta HF,r (2)                0.00005204 [mEh]       0.00003266 [kcal/mol]       0.00013664 [kJ/mol]

    Dispersion                     -0.00052771 [mEh]      -0.00033115 [kcal/mol]      -0.00138552 [kJ/mol]
      Disp20                       -0.00052771 [mEh]      -0.00033115 [kcal/mol]      -0.00138552 [kJ/mol]
      Exch-Disp20                   0.00000000 [mEh]       0.00000000 [kcal/mol]       0.00000000 [kJ/mol]
      Disp20 (SS)                  -0.00026386 [mEh]      -0.00016557 [kcal/mol]      -0.00069276 [kJ/mol]
      Disp20 (OS)                  -0.00026386 [mEh]      -0.00016557 [kcal/mol]      -0.00069276 [kJ/mol]
      Exch-Disp20 (SS)              0.00000000 [mEh]       0.00000000 [kcal/mol]       0.00000000 [kJ/mol]
      Exch-Disp20 (OS)              0.00000000 [mEh]       0.00000000 [kcal/mol]       0.00000000 [kJ/mol]

  Total HF                         -0.01538319 [mEh]      -0.00965310 [kcal/mol]      -0.04038857 [kJ/mol]
  Total SAPT0                      -0.01591091 [mEh]      -0.00998425 [kcal/mol]      -0.04177408 [kJ/mol]

  Special recipe for scaled SAPT0 (see Manual):
    Electrostatics sSAPT0          -0.01538342 [mEh]      -0.00965324 [kcal/mol]      -0.04038915 [kJ/mol]
    Exchange sSAPT0                 0.00000000 [mEh]       0.00000000 [kcal/mol]       0.00000000 [kJ/mol]
    Induction sSAPT0                0.00000022 [mEh]       0.00000014 [kcal/mol]       0.00000059 [kJ/mol]
    Dispersion sSAPT0              -0.00052771 [mEh]      -0.00033115 [kcal/mol]      -0.00138552 [kJ/mol]
  Total sSAPT0                     -0.01591091 [mEh]      -0.00998425 [kcal/mol]      -0.04177408 [kJ/mol]
  --------------------------------------------------------------------------------------------------------

*** tstop() called on ds1 at Mon Oct  4 14:01:16 2021
Module time:
	user time   =      45.70 seconds =       0.76 minutes
	system time =       4.01 seconds =       0.07 minutes
	total time  =         10 seconds =       0.17 minutes
Total time:
	user time   =     100.30 seconds =       1.67 minutes
	system time =       5.33 seconds =       0.09 minutes
	total time  =         22 seconds =       0.37 minutes


Warning! sapt0 does not have an associated derived wavefunction.The returned wavefunction is the dimer SCF wavefunction.


    Psi4 stopped on: Monday, 04 October 2021 02:01PM
    Psi4 wall time for execution: 0:00:21.48

*** Psi4 exiting successfully. Buy a developer a beer!
