
    -----------------------------------------------------------------------
          Psi4: An Open-Source Ab Initio Electronic Structure Package
                               Psi4 1.4rc3 

                         Git: Rev {HEAD} 080dba6 


    D. G. A. Smith, L. A. Burns, A. C. Simmonett, R. M. Parrish,
    M. C. Schieber, R. Galvelis, P. Kraus, H. Kruse, R. Di Remigio,
    A. Alenaizan, A. M. James, S. Lehtola, J. P. Misiewicz, M. Scheurer,
    R. A. Shaw, J. B. Schriber, Y. Xie, Z. L. Glick, D. A. Sirianni,
    J. S. O'Brien, J. M. Waldrop, A. Kumar, E. G. Hohenstein,
    B. P. Pritchard, B. R. Brooks, H. F. Schaefer III, A. Yu. Sokolov,
    K. Patkowski, A. E. DePrince III, U. Bozkaya, R. A. King,
    F. A. Evangelista, J. M. Turney, T. D. Crawford, C. D. Sherrill,
    J. Chem. Phys. 152(18) 184108 (2020). https://doi.org/10.1063/5.0006002

                            Additional Code Authors
    E. T. Seidl, C. L. Janssen, E. F. Valeev, M. L. Leininger,
    J. F. Gonthier, R. M. Richard, H. R. McAlexander, M. Saitow, X. Wang,
    P. Verma, and M. H. Lechner

             Previous Authors, Complete List of Code Contributors,
                       and Citations for Specific Modules
    https://github.com/psi4/psi4/blob/master/codemeta.json
    https://github.com/psi4/psi4/graphs/contributors
    http://psicode.org/psi4manual/master/introduction.html#citing-psifour

    -----------------------------------------------------------------------


    Psi4 started on: Monday, 04 October 2021 01:53PM

    Process ID: 8935
    Host:       ds1
    PSIDATADIR: /theoryfs2/ds/csargent/miniconda3/envs/cle/share/psi4
    Memory:     500.0 MiB
    Threads:    6
    
  ==> Input File <==

--------------------------------------------------------------------------
# PSI4 file produced by CrystaLattE

# Generated from:               pyrazole.xyz
# Psithon input for N-mer:      2mer-0+572
# Number of atoms per monomer:  [9, 9]
# Number of replicas:           1
# COM priority:                 1.558570832942e-05
# Minimum COM separations:      21.185 
# Separation priority:          2.002551950954e-05
# Minimum monomer separations:  19.487 
# Cutoff priority:              5.438073277636e-07
# Nuclear repulsion energy:     365.5707601870676

memory 7 GB

molecule Dimer_0_572 {
  N            6.27981210      -4.25303372       0.19313865 
  N            6.06870777      -2.28125697       1.80544317 
  H            3.66871156      -5.64628941      -1.96684001 
  H            0.69034521      -2.37545694      -0.42864236 
  H            3.35917442       0.17650601       3.09265017 
  H            7.35266782      -1.99461311       2.90680702 
  C            3.77952586      -1.21508453       1.76858172 
  C            2.38242998      -2.55505538       0.04607681 
  C            4.01771468      -4.38410490      -0.88761863 
--
  N            2.79813836     -14.18732502      39.98520336 
  N            2.91700062     -16.22523205      38.44802964 
  H            5.47130109     -11.78641505      40.70323371 
  H            8.36593765     -14.22895380      37.94809621 
  H            5.42951358     -17.94200281      36.04345989 
  H            1.45459240     -17.03520911      38.06226431 
  C            5.19983702     -16.55540772      37.41898079 
  C            6.68282945     -14.62573551      38.30890326 
  C            5.12152412     -13.24056769      39.90060121 
units = au
no_com
no_reorient
}

set {
  e_convergence 10
  d_convergence 10
  scf_type df
  mp2_type df
  cc_type df
  freeze_core true
}

energy('sapt0/aug-cc-pvdz')

--------------------------------------------------------------------------

  Memory set to   6.519 GiB by Python driver.

Scratch directory: /scratch/csargent/psi4.7158.66302/

Scratch directory: /scratch/csargent/psi4.7158.66302/

  //>>>>>>>>>>>>>>>>>>>>>>>>>>>>>>>>>>>//
  //              Dimer HF             //
  //<<<<<<<<<<<<<<<<<<<<<<<<<<<<<<<<<<<//


*** tstart() called on ds1
*** at Mon Oct  4 13:53:52 2021

   => Loading Basis Set <=

    Name: AUG-CC-PVDZ
    Role: ORBITAL
    Keyword: BASIS
    atoms 1-2, 10-11 entry N          line   218 file /theoryfs2/ds/csargent/miniconda3/envs/cle/share/psi4/basis/aug-cc-pvdz.gbs 
    atoms 3-6, 12-15 entry H          line    40 file /theoryfs2/ds/csargent/miniconda3/envs/cle/share/psi4/basis/aug-cc-pvdz.gbs 
    atoms 7-9, 16-18 entry C          line   182 file /theoryfs2/ds/csargent/miniconda3/envs/cle/share/psi4/basis/aug-cc-pvdz.gbs 


         ---------------------------------------------------------
                                   SCF
               by Justin Turney, Rob Parrish, Andy Simmonett
                          and Daniel G. A. Smith
                              RHF Reference
                        6 Threads,   6675 MiB Core
         ---------------------------------------------------------

  ==> Geometry <==

    Molecular point group: c1
    Full point group: C1

    Geometry (in Bohr), charge = 0, multiplicity = 1:

       Center              X                  Y                   Z               Mass       
    ------------   -----------------  -----------------  -----------------  -----------------
         N            6.279812100000    -4.253033720000     0.193138650000    14.003074004430
         N            6.068707770000    -2.281256970000     1.805443170000    14.003074004430
         H            3.668711560000    -5.646289410000    -1.966840010000     1.007825032230
         H            0.690345210000    -2.375456940000    -0.428642360000     1.007825032230
         H            3.359174420000     0.176506010000     3.092650170000     1.007825032230
         H            7.352667820000    -1.994613110000     2.906807020000     1.007825032230
         C            3.779525860000    -1.215084530000     1.768581720000    12.000000000000
         C            2.382429980000    -2.555055380000     0.046076810000    12.000000000000
         C            4.017714680000    -4.384104900000    -0.887618630000    12.000000000000
         N            2.798138360000   -14.187325020000    39.985203360000    14.003074004430
         N            2.917000620000   -16.225232050000    38.448029640000    14.003074004430
         H            5.471301090000   -11.786415050000    40.703233710000     1.007825032230
         H            8.365937650000   -14.228953800000    37.948096210000     1.007825032230
         H            5.429513580000   -17.942002810000    36.043459890000     1.007825032230
         H            1.454592400000   -17.035209110000    38.062264310000     1.007825032230
         C            5.199837020000   -16.555407720000    37.418980790000    12.000000000000
         C            6.682829450000   -14.625735510000    38.308903260000    12.000000000000
         C            5.121524120000   -13.240567690000    39.900601210000    12.000000000000

  Running in c1 symmetry.

  Rotational constants: A =      0.02528  B =      0.00050  C =      0.00050 [cm^-1]
  Rotational constants: A =    757.92363  B =     15.06628  C =     14.84996 [MHz]
  Nuclear repulsion =  365.570760279029344

  Charge       = 0
  Multiplicity = 1
  Electrons    = 72
  Nalpha       = 36
  Nbeta        = 36

  ==> Algorithm <==

  SCF Algorithm Type is DF.
  DIIS enabled.
  MOM disabled.
  Fractional occupation disabled.
  Guess Type is SAD.
  Energy threshold   = 1.00e-10
  Density threshold  = 1.00e-10
  Integral threshold = 1.00e-12

  ==> Primary Basis <==

  Basis Set: AUG-CC-PVDZ
    Blend: AUG-CC-PVDZ
    Number of shells: 130
    Number of basis functions: 302
    Number of Cartesian functions: 322
    Spherical Harmonics?: true
    Max angular momentum: 2

   => Loading Basis Set <=

    Name: (AUG-CC-PVDZ AUX)
    Role: JKFIT
    Keyword: DF_BASIS_SCF
    atoms 1-2, 10-11 entry N          line   212 file /theoryfs2/ds/csargent/miniconda3/envs/cle/share/psi4/basis/aug-cc-pvdz-jkfit.gbs 
    atoms 3-6, 12-15 entry H          line    70 file /theoryfs2/ds/csargent/miniconda3/envs/cle/share/psi4/basis/aug-cc-pvdz-jkfit.gbs 
    atoms 7-9, 16-18 entry C          line   154 file /theoryfs2/ds/csargent/miniconda3/envs/cle/share/psi4/basis/aug-cc-pvdz-jkfit.gbs 

  ==> Integral Setup <==

  ==> DiskDFJK: Density-Fitted J/K Matrices <==

    J tasked:                  Yes
    K tasked:                  Yes
    wK tasked:                  No
    OpenMP threads:              6
    Integrals threads:           6
    Memory [MiB]:             5006
    Algorithm:                Core
    Integral Cache:           SAVE
    Schwarz Cutoff:          1E-12
    Fitting Condition:       1E-10

   => Auxiliary Basis Set <=

  Basis Set: (AUG-CC-PVDZ AUX)
    Blend: AUG-CC-PVDZ-JKFIT
    Number of shells: 376
    Number of basis functions: 1116
    Number of Cartesian functions: 1290
    Spherical Harmonics?: true
    Max angular momentum: 3

  Minimum eigenvalue in the overlap matrix is 3.0324468958E-05.
  Reciprocal condition number of the overlap matrix is 2.4867199095E-06.
    Using symmetric orthogonalization.

  ==> Pre-Iterations <==

  SCF Guess: Superposition of Atomic Densities via on-the-fly atomic UHF (no occupation information).

   -------------------------
    Irrep   Nso     Nmo    
   -------------------------
     A        302     302 
   -------------------------
    Total     302     302
   -------------------------

  ==> Iterations <==

                           Total Energy        Delta E     RMS |[F,P]|

   @DF-RHF iter SAD:  -449.44445656809143   -4.49444e+02   0.00000e+00 
   @DF-RHF iter   1:  -449.27109095734016    1.73366e-01   2.12802e-03 DIIS
   @DF-RHF iter   2:  -449.47981191002907   -2.08721e-01   9.73496e-04 DIIS
   @DF-RHF iter   3:  -449.52161774946615   -4.18058e-02   2.10080e-04 DIIS
   @DF-RHF iter   4:  -449.52438501793210   -2.76727e-03   8.55125e-05 DIIS
   @DF-RHF iter   5:  -449.52474099523170   -3.55977e-04   1.69526e-05 DIIS
   @DF-RHF iter   6:  -449.52477488295574   -3.38877e-05   7.02094e-06 DIIS
   @DF-RHF iter   7:  -449.52478278853391   -7.90558e-06   3.08913e-06 DIIS
   @DF-RHF iter   8:  -449.52478430633954   -1.51781e-06   1.43731e-06 DIIS
   @DF-RHF iter   9:  -449.52478464095390   -3.34614e-07   4.00007e-07 DIIS
   @DF-RHF iter  10:  -449.52478465853477   -1.75809e-08   1.20975e-07 DIIS
   @DF-RHF iter  11:  -449.52478465991146   -1.37669e-09   2.82253e-08 DIIS
   @DF-RHF iter  12:  -449.52478466000366   -9.22000e-11   8.20529e-09 DIIS
   @DF-RHF iter  13:  -449.52478466001259   -8.92442e-12   3.99850e-09 DIIS
   @DF-RHF iter  14:  -449.52478466001423   -1.64846e-12   1.37843e-09 DIIS
   @DF-RHF iter  15:  -449.52478466001446   -2.27374e-13   5.87237e-10 DIIS
   @DF-RHF iter  16:  -449.52478466001440    5.68434e-14   1.78669e-10 DIIS
   @DF-RHF iter  17:  -449.52478466001423    1.70530e-13   6.41889e-11 DIIS
  Energy and wave function converged.


  ==> Post-Iterations <==

    Orbital Energies [Eh]
    ---------------------

    Doubly Occupied:                                                      

       1A    -15.636467     2A    -15.636433     3A    -15.592560  
       4A    -15.592496     5A    -11.280131     6A    -11.280099  
       7A    -11.238033     8A    -11.237968     9A    -11.210127  
      10A    -11.210084    11A     -1.387203    12A     -1.387167  
      13A     -1.122148    14A     -1.122097    15A     -1.067138  
      16A     -1.067128    17A     -0.873012    18A     -0.872963  
      19A     -0.837303    20A     -0.837243    21A     -0.757528  
      22A     -0.757467    23A     -0.645990    24A     -0.645949  
      25A     -0.621074    26A     -0.621032    27A     -0.609384  
      28A     -0.609378    29A     -0.584158    30A     -0.584104  
      31A     -0.461655    32A     -0.461620    33A     -0.370967  
      34A     -0.370921    35A     -0.346288    36A     -0.346255  

    Virtual:                                                              

      37A      0.030562    38A      0.030622    39A      0.042146  
      40A      0.042149    41A      0.048917    42A      0.048967  
      43A      0.063293    44A      0.063329    45A      0.100769  
      46A      0.100817    47A      0.103789    48A      0.103835  
      49A      0.116923    50A      0.116951    51A      0.126030  
      52A      0.126074    53A      0.132847    54A      0.132892  
      55A      0.138182    56A      0.138195    57A      0.141275  
      58A      0.141294    59A      0.156678    60A      0.156698  
      61A      0.164373    62A      0.164393    63A      0.170830  
      64A      0.170879    65A      0.178166    66A      0.178200  
      67A      0.195801    68A      0.195863    69A      0.204537  
      70A      0.204601    71A      0.205903    72A      0.205958  
      73A      0.239988    74A      0.240028    75A      0.243386  
      76A      0.243431    77A      0.244710    78A      0.244756  
      79A      0.270867    80A      0.270921    81A      0.278854  
      82A      0.278907    83A      0.300744    84A      0.300798  
      85A      0.324913    86A      0.324947    87A      0.352126  
      88A      0.352165    89A      0.355121    90A      0.355156  
      91A      0.374673    92A      0.374713    93A      0.395839  
      94A      0.395882    95A      0.402507    96A      0.402552  
      97A      0.414775    98A      0.414804    99A      0.431888  
     100A      0.431933   101A      0.443128   102A      0.443162  
     103A      0.453146   104A      0.453212   105A      0.459575  
     106A      0.459609   107A      0.478414   108A      0.478460  
     109A      0.498299   110A      0.498335   111A      0.508445  
     112A      0.508487   113A      0.521689   114A      0.521765  
     115A      0.541321   116A      0.541364   117A      0.574192  
     118A      0.574233   119A      0.586079   120A      0.586121  
     121A      0.590304   122A      0.590350   123A      0.602180  
     124A      0.602239   125A      0.620716   126A      0.620774  
     127A      0.645875   128A      0.645911   129A      0.655069  
     130A      0.655110   131A      0.675921   132A      0.675964  
     133A      0.697803   134A      0.697838   135A      0.700152  
     136A      0.700183   137A      0.721428   138A      0.721450  
     139A      0.724881   140A      0.724926   141A      0.747468  
     142A      0.747515   143A      0.758353   144A      0.758441  
     145A      0.773074   146A      0.773092   147A      0.781235  
     148A      0.781274   149A      0.828254   150A      0.828303  
     151A      0.837990   152A      0.838041   153A      0.848159  
     154A      0.848185   155A      0.881161   156A      0.881198  
     157A      0.888534   158A      0.888566   159A      0.906708  
     160A      0.906746   161A      0.924572   162A      0.924603  
     163A      0.942339   164A      0.942396   165A      0.977975  
     166A      0.977992   167A      0.984609   168A      0.984652  
     169A      1.010894   170A      1.010959   171A      1.046355  
     172A      1.046421   173A      1.066269   174A      1.066306  
     175A      1.100610   176A      1.100657   177A      1.127815  
     178A      1.127895   179A      1.133951   180A      1.133953  
     181A      1.149996   182A      1.150038   183A      1.174926  
     184A      1.174963   185A      1.220300   186A      1.220333  
     187A      1.269316   188A      1.269373   189A      1.303095  
     190A      1.303185   191A      1.311151   192A      1.311227  
     193A      1.365559   194A      1.365597   195A      1.400805  
     196A      1.400837   197A      1.474443   198A      1.474504  
     199A      1.511782   200A      1.511819   201A      1.525890  
     202A      1.525935   203A      1.560748   204A      1.560773  
     205A      1.590649   206A      1.590693   207A      1.608429  
     208A      1.608476   209A      1.637199   210A      1.637230  
     211A      1.669235   212A      1.669293   213A      1.703394  
     214A      1.703436   215A      1.723706   216A      1.723753  
     217A      1.748971   218A      1.749043   219A      1.764134  
     220A      1.764167   221A      1.804805   222A      1.804821  
     223A      1.875393   224A      1.875397   225A      1.932148  
     226A      1.932204   227A      1.943322   228A      1.943360  
     229A      1.987824   230A      1.987933   231A      2.021201  
     232A      2.021250   233A      2.057370   234A      2.057460  
     235A      2.088601   236A      2.088613   237A      2.144444  
     238A      2.144506   239A      2.189769   240A      2.189801  
     241A      2.200586   242A      2.200624   243A      2.230214  
     244A      2.230253   245A      2.275583   246A      2.275626  
     247A      2.307399   248A      2.307437   249A      2.360442  
     250A      2.360475   251A      2.388887   252A      2.388920  
     253A      2.393564   254A      2.393578   255A      2.434997  
     256A      2.435000   257A      2.464720   258A      2.464744  
     259A      2.531555   260A      2.531583   261A      2.569987  
     262A      2.569991   263A      2.584472   264A      2.584623  
     265A      2.642719   266A      2.642760   267A      2.732791  
     268A      2.732818   269A      2.826592   270A      2.826602  
     271A      2.834504   272A      2.834506   273A      2.901341  
     274A      2.901341   275A      2.918355   276A      2.918364  
     277A      2.998916   278A      2.998994   279A      3.055082  
     280A      3.055112   281A      3.092111   282A      3.092236  
     283A      3.122489   284A      3.122502   285A      3.188684  
     286A      3.188804   287A      3.221767   288A      3.221828  
     289A      3.297618   290A      3.297707   291A      3.380000  
     292A      3.380022   293A      3.520483   294A      3.520562  
     295A      3.686092   296A      3.686322   297A      3.889049  
     298A      3.889081   299A      4.209107   300A      4.209180  
     301A      4.462830   302A      4.462997  

    Final Occupation by Irrep:
              A 
    DOCC [    36 ]

  @DF-RHF Final Energy:  -449.52478466001423

   => Energetics <=

    Nuclear Repulsion Energy =            365.5707602790293436
    One-Electron Energy =               -1331.6279469412975232
    Two-Electron Energy =                 516.5324020022538889
    Total Energy =                       -449.5247846600142339

Computation Completed


Properties will be evaluated at   0.000000,   0.000000,   0.000000 [a0]

Properties computed using the SCF density matrix

  Nuclear Dipole Moment: [e a0]
     X:   325.3410      Y:  -644.9161      Z:  1418.7169

  Electronic Dipole Moment: [e a0]
     X:  -325.4529      Y:   644.9837      Z: -1418.8405

  Dipole Moment: [e a0]
     X:    -0.1119      Y:     0.0675      Z:    -0.1236     Total:     0.1799

  Dipole Moment: [D]
     X:    -0.2845      Y:     0.1717      Z:    -0.3141     Total:     0.4573


*** tstop() called on ds1 at Mon Oct  4 13:53:56 2021
Module time:
	user time   =      22.68 seconds =       0.38 minutes
	system time =       0.59 seconds =       0.01 minutes
	total time  =          4 seconds =       0.07 minutes
Total time:
	user time   =      22.68 seconds =       0.38 minutes
	system time =       0.59 seconds =       0.01 minutes
	total time  =          4 seconds =       0.07 minutes

  //>>>>>>>>>>>>>>>>>>>>>>>>>>>>>>>>>>>//
  //            Monomer A HF           //
  //<<<<<<<<<<<<<<<<<<<<<<<<<<<<<<<<<<<//


*** tstart() called on ds1
*** at Mon Oct  4 13:53:56 2021

   => Loading Basis Set <=

    Name: AUG-CC-PVDZ
    Role: ORBITAL
    Keyword: BASIS
    atoms 1-2, 10-11 entry N          line   218 file /theoryfs2/ds/csargent/miniconda3/envs/cle/share/psi4/basis/aug-cc-pvdz.gbs 
    atoms 3-6, 12-15 entry H          line    40 file /theoryfs2/ds/csargent/miniconda3/envs/cle/share/psi4/basis/aug-cc-pvdz.gbs 
    atoms 7-9, 16-18 entry C          line   182 file /theoryfs2/ds/csargent/miniconda3/envs/cle/share/psi4/basis/aug-cc-pvdz.gbs 


         ---------------------------------------------------------
                                   SCF
               by Justin Turney, Rob Parrish, Andy Simmonett
                          and Daniel G. A. Smith
                              RHF Reference
                        6 Threads,   6675 MiB Core
         ---------------------------------------------------------

  ==> Geometry <==

    Molecular point group: c1
    Full point group: C1

    Geometry (in Bohr), charge = 0, multiplicity = 1:

       Center              X                  Y                   Z               Mass       
    ------------   -----------------  -----------------  -----------------  -----------------
         N            6.279812100000    -4.253033720000     0.193138650000    14.003074004430
         N            6.068707770000    -2.281256970000     1.805443170000    14.003074004430
         H            3.668711560000    -5.646289410000    -1.966840010000     1.007825032230
         H            0.690345210000    -2.375456940000    -0.428642360000     1.007825032230
         H            3.359174420000     0.176506010000     3.092650170000     1.007825032230
         H            7.352667820000    -1.994613110000     2.906807020000     1.007825032230
         C            3.779525860000    -1.215084530000     1.768581720000    12.000000000000
         C            2.382429980000    -2.555055380000     0.046076810000    12.000000000000
         C            4.017714680000    -4.384104900000    -0.887618630000    12.000000000000
      Gh(N)           2.798138360000   -14.187325020000    39.985203360000    14.003074004430
      Gh(N)           2.917000620000   -16.225232050000    38.448029640000    14.003074004430
      Gh(H)           5.471301090000   -11.786415050000    40.703233710000     1.007825032230
      Gh(H)           8.365937650000   -14.228953800000    37.948096210000     1.007825032230
      Gh(H)           5.429513580000   -17.942002810000    36.043459890000     1.007825032230
      Gh(H)           1.454592400000   -17.035209110000    38.062264310000     1.007825032230
      Gh(C)           5.199837020000   -16.555407720000    37.418980790000    12.000000000000
      Gh(C)           6.682829450000   -14.625735510000    38.308903260000    12.000000000000
      Gh(C)           5.121524120000   -13.240567690000    39.900601210000    12.000000000000

  Running in c1 symmetry.

  Rotational constants: A =      0.02528  B =      0.00050  C =      0.00050 [cm^-1]
  Rotational constants: A =    757.92363  B =     15.06628  C =     14.84996 [MHz]
  Nuclear repulsion =  166.624056450327203

  Charge       = 0
  Multiplicity = 1
  Electrons    = 36
  Nalpha       = 18
  Nbeta        = 18

  ==> Algorithm <==

  SCF Algorithm Type is DF.
  DIIS enabled.
  MOM disabled.
  Fractional occupation disabled.
  Guess Type is SAD.
  Energy threshold   = 1.00e-10
  Density threshold  = 1.00e-10
  Integral threshold = 1.00e-12

  ==> Primary Basis <==

  Basis Set: AUG-CC-PVDZ
    Blend: AUG-CC-PVDZ
    Number of shells: 130
    Number of basis functions: 302
    Number of Cartesian functions: 322
    Spherical Harmonics?: true
    Max angular momentum: 2

   => Loading Basis Set <=

    Name: (AUG-CC-PVDZ AUX)
    Role: JKFIT
    Keyword: DF_BASIS_SCF
    atoms 1-2, 10-11 entry N          line   212 file /theoryfs2/ds/csargent/miniconda3/envs/cle/share/psi4/basis/aug-cc-pvdz-jkfit.gbs 
    atoms 3-6, 12-15 entry H          line    70 file /theoryfs2/ds/csargent/miniconda3/envs/cle/share/psi4/basis/aug-cc-pvdz-jkfit.gbs 
    atoms 7-9, 16-18 entry C          line   154 file /theoryfs2/ds/csargent/miniconda3/envs/cle/share/psi4/basis/aug-cc-pvdz-jkfit.gbs 

  ==> Integral Setup <==

  ==> DiskDFJK: Density-Fitted J/K Matrices <==

    J tasked:                  Yes
    K tasked:                  Yes
    wK tasked:                  No
    OpenMP threads:              6
    Integrals threads:           6
    Memory [MiB]:             5006
    Algorithm:                Core
    Integral Cache:           LOAD
    Schwarz Cutoff:          1E-12
    Fitting Condition:       1E-10

   => Auxiliary Basis Set <=

  Basis Set: (AUG-CC-PVDZ AUX)
    Blend: AUG-CC-PVDZ-JKFIT
    Number of shells: 376
    Number of basis functions: 1116
    Number of Cartesian functions: 1290
    Spherical Harmonics?: true
    Max angular momentum: 3

  Minimum eigenvalue in the overlap matrix is 3.0324468958E-05.
  Reciprocal condition number of the overlap matrix is 2.4867199095E-06.
    Using symmetric orthogonalization.

  ==> Pre-Iterations <==

  SCF Guess: Superposition of Atomic Densities via on-the-fly atomic UHF (no occupation information).

   -------------------------
    Irrep   Nso     Nmo    
   -------------------------
     A        302     302 
   -------------------------
    Total     302     302
   -------------------------

  ==> Iterations <==

                           Total Energy        Delta E     RMS |[F,P]|

   @DF-RHF iter SAD:  -224.72194801153159   -2.24722e+02   0.00000e+00 
   @DF-RHF iter   1:  -224.63549169864390    8.64563e-02   1.50472e-03 DIIS
   @DF-RHF iter   2:  -224.73984613134692   -1.04354e-01   6.88462e-04 DIIS
   @DF-RHF iter   3:  -224.76075487024417   -2.09087e-02   1.48626e-04 DIIS
   @DF-RHF iter   4:  -224.76213931402000   -1.38444e-03   6.05310e-05 DIIS
   @DF-RHF iter   5:  -224.76231766877845   -1.78355e-04   1.19893e-05 DIIS
   @DF-RHF iter   6:  -224.76233462625183   -1.69575e-05   4.96772e-06 DIIS
   @DF-RHF iter   7:  -224.76233858228960   -3.95604e-06   2.18806e-06 DIIS
   @DF-RHF iter   8:  -224.76233934303247   -7.60743e-07   1.01700e-06 DIIS
   @DF-RHF iter   9:  -224.76233951067417   -1.67642e-07   2.83302e-07 DIIS
   @DF-RHF iter  10:  -224.76233951949507   -8.82090e-09   8.55547e-08 DIIS
   @DF-RHF iter  11:  -224.76233952018438   -6.89312e-10   1.99714e-08 DIIS
   @DF-RHF iter  12:  -224.76233952023060   -4.62137e-11   5.81092e-09 DIIS
   @DF-RHF iter  13:  -224.76233952023492   -4.32010e-12   2.83097e-09 DIIS
   @DF-RHF iter  14:  -224.76233952023591   -9.94760e-13   9.75191e-10 DIIS
   @DF-RHF iter  15:  -224.76233952023571    1.98952e-13   4.15548e-10 DIIS
   @DF-RHF iter  16:  -224.76233952023549    2.27374e-13   1.25998e-10 DIIS
   @DF-RHF iter  17:  -224.76233952023591   -4.26326e-13   4.47779e-11 DIIS
  Energy and wave function converged.


  ==> Post-Iterations <==

    Orbital Energies [Eh]
    ---------------------

    Doubly Occupied:                                                      

       1A    -15.636223     2A    -15.592313     3A    -11.279894  
       4A    -11.237784     5A    -11.209891     6A     -1.386922  
       7A     -1.121901     8A     -1.066898     9A     -0.872768  
      10A     -0.837061    11A     -0.757292    12A     -0.645746  
      13A     -0.620834    14A     -0.609140    15A     -0.583920  
      16A     -0.461404    17A     -0.370721    18A     -0.346048  

    Virtual:                                                              

      19A      0.022508    20A      0.030764    21A      0.039859  
      22A      0.042368    23A      0.043980    24A      0.049159  
      25A      0.063520    26A      0.065729    27A      0.083796  
      28A      0.090569    29A      0.098797    30A      0.100998  
      31A      0.104029    32A      0.117179    33A      0.118178  
      34A      0.125656    35A      0.126270    36A      0.128099  
      37A      0.133069    38A      0.133202    39A      0.133957  
      40A      0.138403    41A      0.141490    42A      0.156889  
      43A      0.158374    44A      0.164592    45A      0.165801  
      46A      0.171075    47A      0.178408    48A      0.179040  
      49A      0.195328    50A      0.196042    51A      0.201342  
      52A      0.204793    53A      0.206162    54A      0.222774  
      55A      0.224984    56A      0.228082    57A      0.235407  
      58A      0.240236    59A      0.243626    60A      0.244965  
      61A      0.263900    62A      0.270874    63A      0.271127  
      64A      0.279080    65A      0.301010    66A      0.321758  
      67A      0.325148    68A      0.339938    69A      0.352358  
      70A      0.355357    71A      0.366398    72A      0.372738  
      73A      0.374907    74A      0.383559    75A      0.396061  
      76A      0.402741    77A      0.414998    78A      0.427325  
      79A      0.431913    80A      0.432132    81A      0.441025  
      82A      0.442180    83A      0.443385    84A      0.453393  
      85A      0.455857    86A      0.457271    87A      0.459816  
      88A      0.461728    89A      0.478655    90A      0.498543  
      91A      0.508690    92A      0.509588    93A      0.519280  
      94A      0.521917    95A      0.532985    96A      0.537891  
      97A      0.541560    98A      0.559172    99A      0.568696  
     100A      0.571696   101A      0.574432   102A      0.586318  
     103A      0.590538   104A      0.595007   105A      0.602413  
     106A      0.613223   107A      0.620953   108A      0.621108  
     109A      0.633384   110A      0.646110   111A      0.655295  
     112A      0.676162   113A      0.690686   114A      0.698041  
     115A      0.700391   116A      0.707662   117A      0.719308  
     118A      0.721667   119A      0.725115   120A      0.735529  
     121A      0.745212   122A      0.747709   123A      0.758592  
     124A      0.773318   125A      0.781481   126A      0.789548  
     127A      0.797985   128A      0.814306   129A      0.820783  
     130A      0.828504   131A      0.838230   132A      0.848393  
     133A      0.851812   134A      0.854978   135A      0.870869  
     136A      0.880942   137A      0.881395   138A      0.888767  
     139A      0.895540   140A      0.906950   141A      0.916037  
     142A      0.924815   143A      0.942582   144A      0.951976  
     145A      0.978222   146A      0.984850   147A      0.997066  
     148A      1.011149   149A      1.024059   150A      1.030128  
     151A      1.046606   152A      1.051548   153A      1.066503  
     154A      1.071029   155A      1.080886   156A      1.100852  
     157A      1.108110   158A      1.128058   159A      1.134196  
     160A      1.150235   161A      1.158723   162A      1.166226  
     163A      1.175168   164A      1.184910   165A      1.220548  
     166A      1.221680   167A      1.237002   168A      1.267918  
     169A      1.269556   170A      1.293690   171A      1.303342  
     172A      1.311399   173A      1.315104   174A      1.340627  
     175A      1.365807   176A      1.381792   177A      1.401043  
     178A      1.434967   179A      1.444709   180A      1.474691  
     181A      1.493179   182A      1.507027   183A      1.512027  
     184A      1.526129   185A      1.560989   186A      1.590882  
     187A      1.608669   188A      1.637437   189A      1.669472  
     190A      1.676689   191A      1.688857   192A      1.703634  
     193A      1.723950   194A      1.749215   195A      1.764373  
     196A      1.805048   197A      1.875632   198A      1.932390  
     199A      1.943558   200A      1.988067   201A      2.021445  
     202A      2.041035   203A      2.057611   204A      2.088839  
     205A      2.109056   206A      2.134753   207A      2.144687  
     208A      2.168077   209A      2.190005   210A      2.200827  
     211A      2.216589   212A      2.230457   213A      2.233826  
     214A      2.261834   215A      2.275825   216A      2.277679  
     217A      2.289229   218A      2.307640   219A      2.335618  
     220A      2.360716   221A      2.380549   222A      2.389130  
     223A      2.393822   224A      2.394514   225A      2.435246  
     226A      2.443844   227A      2.464967   228A      2.478262  
     229A      2.499906   230A      2.513652   231A      2.531798  
     232A      2.548798   233A      2.570232   234A      2.584716  
     235A      2.631303   236A      2.642961   237A      2.667514  
     238A      2.703016   239A      2.718864   240A      2.733029  
     241A      2.826838   242A      2.827915   243A      2.834751  
     244A      2.869814   245A      2.890003   246A      2.901587  
     247A      2.918598   248A      2.945065   249A      2.999157  
     250A      3.027960   251A      3.055324   252A      3.089737  
     253A      3.092358   254A      3.122730   255A      3.140016  
     256A      3.181860   257A      3.188930   258A      3.222008  
     259A      3.254143   260A      3.289103   261A      3.297865  
     262A      3.355655   263A      3.380235   264A      3.395615  
     265A      3.423407   266A      3.448188   267A      3.487194  
     268A      3.497531   269A      3.520727   270A      3.633601  
     271A      3.666953   272A      3.686563   273A      3.735614  
     274A      3.770124   275A      3.851148   276A      3.889327  
     277A      3.964531   278A      4.035637   279A      4.094765  
     280A      4.209428   281A      4.244073   282A      4.448244  
     283A      4.463235   284A      4.658471   285A      4.708163  
     286A      4.749936   287A      4.810836   288A      4.994849  
     289A      5.076717   290A      5.241245   291A      5.531474  
     292A      5.669038   293A      5.826663   294A      6.107029  
     295A      6.318173   296A      6.707565   297A      6.967505  
     298A     18.111159   299A     18.648051   300A     19.373687  
     301A     25.245440   302A     25.705342  

    Final Occupation by Irrep:
              A 
    DOCC [    18 ]

  @DF-RHF Final Energy:  -224.76233952023591

   => Energetics <=

    Nuclear Repulsion Energy =            166.6240564503272026
    One-Electron Energy =                -633.4992733858346128
    Two-Electron Energy =                 242.1128774152714982
    Total Energy =                       -224.7623395202359120

Computation Completed


Properties will be evaluated at   0.000000,   0.000000,   0.000000 [a0]

Properties computed using the SCF density matrix

  Nuclear Dipole Moment: [e a0]
     X:   162.5886      Y:  -104.5054      Z:    23.1563

  Electronic Dipole Moment: [e a0]
     X:  -162.9913      Y:   105.1370      Z:   -22.5767

  Dipole Moment: [e a0]
     X:    -0.4027      Y:     0.6317      Z:     0.5796     Total:     0.9472

  Dipole Moment: [D]
     X:    -1.0235      Y:     1.6055      Z:     1.4733     Total:     2.4075


*** tstop() called on ds1 at Mon Oct  4 13:54:00 2021
Module time:
	user time   =      15.58 seconds =       0.26 minutes
	system time =       0.33 seconds =       0.01 minutes
	total time  =          4 seconds =       0.07 minutes
Total time:
	user time   =      38.51 seconds =       0.64 minutes
	system time =       0.92 seconds =       0.02 minutes
	total time  =          8 seconds =       0.13 minutes

  //>>>>>>>>>>>>>>>>>>>>>>>>>>>>>>>>>>>//
  //            Monomer B HF           //
  //<<<<<<<<<<<<<<<<<<<<<<<<<<<<<<<<<<<//


*** tstart() called on ds1
*** at Mon Oct  4 13:54:00 2021

   => Loading Basis Set <=

    Name: AUG-CC-PVDZ
    Role: ORBITAL
    Keyword: BASIS
    atoms 1-2, 10-11 entry N          line   218 file /theoryfs2/ds/csargent/miniconda3/envs/cle/share/psi4/basis/aug-cc-pvdz.gbs 
    atoms 3-6, 12-15 entry H          line    40 file /theoryfs2/ds/csargent/miniconda3/envs/cle/share/psi4/basis/aug-cc-pvdz.gbs 
    atoms 7-9, 16-18 entry C          line   182 file /theoryfs2/ds/csargent/miniconda3/envs/cle/share/psi4/basis/aug-cc-pvdz.gbs 


         ---------------------------------------------------------
                                   SCF
               by Justin Turney, Rob Parrish, Andy Simmonett
                          and Daniel G. A. Smith
                              RHF Reference
                        6 Threads,   6675 MiB Core
         ---------------------------------------------------------

  ==> Geometry <==

    Molecular point group: c1
    Full point group: C1

    Geometry (in Bohr), charge = 0, multiplicity = 1:

       Center              X                  Y                   Z               Mass       
    ------------   -----------------  -----------------  -----------------  -----------------
      Gh(N)           6.279812100000    -4.253033720000     0.193138650000    14.003074004430
      Gh(N)           6.068707770000    -2.281256970000     1.805443170000    14.003074004430
      Gh(H)           3.668711560000    -5.646289410000    -1.966840010000     1.007825032230
      Gh(H)           0.690345210000    -2.375456940000    -0.428642360000     1.007825032230
      Gh(H)           3.359174420000     0.176506010000     3.092650170000     1.007825032230
      Gh(H)           7.352667820000    -1.994613110000     2.906807020000     1.007825032230
      Gh(C)           3.779525860000    -1.215084530000     1.768581720000    12.000000000000
      Gh(C)           2.382429980000    -2.555055380000     0.046076810000    12.000000000000
      Gh(C)           4.017714680000    -4.384104900000    -0.887618630000    12.000000000000
         N            2.798138360000   -14.187325020000    39.985203360000    14.003074004430
         N            2.917000620000   -16.225232050000    38.448029640000    14.003074004430
         H            5.471301090000   -11.786415050000    40.703233710000     1.007825032230
         H            8.365937650000   -14.228953800000    37.948096210000     1.007825032230
         H            5.429513580000   -17.942002810000    36.043459890000     1.007825032230
         H            1.454592400000   -17.035209110000    38.062264310000     1.007825032230
         C            5.199837020000   -16.555407720000    37.418980790000    12.000000000000
         C            6.682829450000   -14.625735510000    38.308903260000    12.000000000000
         C            5.121524120000   -13.240567690000    39.900601210000    12.000000000000

  Running in c1 symmetry.

  Rotational constants: A =      0.02528  B =      0.00050  C =      0.00050 [cm^-1]
  Rotational constants: A =    757.92363  B =     15.06628  C =     14.84996 [MHz]
  Nuclear repulsion =  166.628602906427886

  Charge       = 0
  Multiplicity = 1
  Electrons    = 36
  Nalpha       = 18
  Nbeta        = 18

  ==> Algorithm <==

  SCF Algorithm Type is DF.
  DIIS enabled.
  MOM disabled.
  Fractional occupation disabled.
  Guess Type is SAD.
  Energy threshold   = 1.00e-10
  Density threshold  = 1.00e-10
  Integral threshold = 1.00e-12

  ==> Primary Basis <==

  Basis Set: AUG-CC-PVDZ
    Blend: AUG-CC-PVDZ
    Number of shells: 130
    Number of basis functions: 302
    Number of Cartesian functions: 322
    Spherical Harmonics?: true
    Max angular momentum: 2

   => Loading Basis Set <=

    Name: (AUG-CC-PVDZ AUX)
    Role: JKFIT
    Keyword: DF_BASIS_SCF
    atoms 1-2, 10-11 entry N          line   212 file /theoryfs2/ds/csargent/miniconda3/envs/cle/share/psi4/basis/aug-cc-pvdz-jkfit.gbs 
    atoms 3-6, 12-15 entry H          line    70 file /theoryfs2/ds/csargent/miniconda3/envs/cle/share/psi4/basis/aug-cc-pvdz-jkfit.gbs 
    atoms 7-9, 16-18 entry C          line   154 file /theoryfs2/ds/csargent/miniconda3/envs/cle/share/psi4/basis/aug-cc-pvdz-jkfit.gbs 

  ==> Integral Setup <==

  ==> DiskDFJK: Density-Fitted J/K Matrices <==

    J tasked:                  Yes
    K tasked:                  Yes
    wK tasked:                  No
    OpenMP threads:              6
    Integrals threads:           6
    Memory [MiB]:             5006
    Algorithm:                Core
    Integral Cache:           LOAD
    Schwarz Cutoff:          1E-12
    Fitting Condition:       1E-10

   => Auxiliary Basis Set <=

  Basis Set: (AUG-CC-PVDZ AUX)
    Blend: AUG-CC-PVDZ-JKFIT
    Number of shells: 376
    Number of basis functions: 1116
    Number of Cartesian functions: 1290
    Spherical Harmonics?: true
    Max angular momentum: 3

  Minimum eigenvalue in the overlap matrix is 3.0324468958E-05.
  Reciprocal condition number of the overlap matrix is 2.4867199095E-06.
    Using symmetric orthogonalization.

  ==> Pre-Iterations <==

  SCF Guess: Superposition of Atomic Densities via on-the-fly atomic UHF (no occupation information).

   -------------------------
    Irrep   Nso     Nmo    
   -------------------------
     A        302     302 
   -------------------------
    Total     302     302
   -------------------------

  ==> Iterations <==

                           Total Energy        Delta E     RMS |[F,P]|

   @DF-RHF iter SAD:  -224.72250855634746   -2.24723e+02   0.00000e+00 
   @DF-RHF iter   1:  -224.63556595955984    8.69426e-02   1.50490e-03 DIIS
   @DF-RHF iter   2:  -224.73993304771378   -1.04367e-01   6.88620e-04 DIIS
   @DF-RHF iter   3:  -224.76085080146368   -2.09178e-02   1.48614e-04 DIIS
   @DF-RHF iter   4:  -224.76223500011662   -1.38420e-03   6.05151e-05 DIIS
   @DF-RHF iter   5:  -224.76241324461793   -1.78245e-04   1.19848e-05 DIIS
   @DF-RHF iter   6:  -224.76243017776679   -1.69331e-05   4.96323e-06 DIIS
   @DF-RHF iter   7:  -224.76243412560970   -3.94784e-06   2.18627e-06 DIIS
   @DF-RHF iter   8:  -224.76243488514856   -7.59539e-07   1.01631e-06 DIIS
   @DF-RHF iter   9:  -224.76243505265347   -1.67505e-07   2.83280e-07 DIIS
   @DF-RHF iter  10:  -224.76243506147088   -8.81741e-09   8.55270e-08 DIIS
   @DF-RHF iter  11:  -224.76243506215980   -6.88914e-10   1.99678e-08 DIIS
   @DF-RHF iter  12:  -224.76243506220658   -4.67821e-11   5.80973e-09 DIIS
   @DF-RHF iter  13:  -224.76243506221110   -4.51905e-12   2.83582e-09 DIIS
   @DF-RHF iter  14:  -224.76243506221175   -6.53699e-13   9.79833e-10 DIIS
   @DF-RHF iter  15:  -224.76243506221203   -2.84217e-13   4.16538e-10 DIIS
   @DF-RHF iter  16:  -224.76243506221152    5.11591e-13   1.25808e-10 DIIS
   @DF-RHF iter  17:  -224.76243506221232   -7.95808e-13   4.47604e-11 DIIS
  Energy and wave function converged.


  ==> Post-Iterations <==

    Orbital Energies [Eh]
    ---------------------

    Doubly Occupied:                                                      

       1A    -15.636233     2A    -15.592291     3A    -11.279903  
       4A    -11.237759     5A    -11.209884     6A     -1.387001  
       7A     -1.121894     8A     -1.066928     9A     -0.872759  
      10A     -0.837039    11A     -0.757272    12A     -0.645745  
      13A     -0.620828    14A     -0.609177    15A     -0.583905  
      16A     -0.461413    17A     -0.370715    18A     -0.346055  

    Virtual:                                                              

      19A      0.022472    20A      0.030764    21A      0.039825  
      22A      0.042369    23A      0.043941    24A      0.049158  
      25A      0.063519    26A      0.065685    27A      0.083762  
      28A      0.090529    29A      0.098753    30A      0.101001  
      31A      0.104028    32A      0.117186    33A      0.118150  
      34A      0.125633    35A      0.126272    36A      0.128074  
      37A      0.133070    38A      0.133167    39A      0.133928  
      40A      0.138399    41A      0.141487    42A      0.156889  
      43A      0.158354    44A      0.164594    45A      0.165762  
      46A      0.171081    47A      0.178407    48A      0.178999  
      49A      0.195274    50A      0.196040    51A      0.201285  
      52A      0.204806    53A      0.206166    54A      0.222716  
      55A      0.224939    56A      0.228046    57A      0.235361  
      58A      0.240240    59A      0.243627    60A      0.244965  
      61A      0.263853    62A      0.270813    63A      0.271138  
      64A      0.279081    65A      0.301024    66A      0.321713  
      67A      0.325138    68A      0.339901    69A      0.352355  
      70A      0.355359    71A      0.366344    72A      0.372705  
      73A      0.374909    74A      0.383535    75A      0.396062  
      76A      0.402744    77A      0.415005    78A      0.427289  
      79A      0.431871    80A      0.432131    81A      0.441003  
      82A      0.442155    83A      0.443379    84A      0.453414  
      85A      0.455806    86A      0.457235    87A      0.459816  
      88A      0.461689    89A      0.478656    90A      0.498544  
      91A      0.508693    92A      0.509539    93A      0.519230  
      94A      0.521953    95A      0.532941    96A      0.537859  
      97A      0.541569    98A      0.559134    99A      0.568632  
     100A      0.571660   101A      0.574428   102A      0.586322  
     103A      0.590547   104A      0.594992   105A      0.602431  
     106A      0.613187   107A      0.620974   108A      0.621057  
     109A      0.633341   110A      0.646111   111A      0.655304  
     112A      0.676168   113A      0.690659   114A      0.698039  
     115A      0.700384   116A      0.707626   117A      0.719268  
     118A      0.721648   119A      0.725121   120A      0.735496  
     121A      0.745181   122A      0.747717   123A      0.758643  
     124A      0.773300   125A      0.781476   126A      0.789504  
     127A      0.797937   128A      0.814276   129A      0.820745  
     130A      0.828513   131A      0.838238   132A      0.848382  
     133A      0.851774   134A      0.854936   135A      0.870851  
     136A      0.880898   137A      0.881396   138A      0.888762  
     139A      0.895507   140A      0.906950   141A      0.915985  
     142A      0.924803   143A      0.942599   144A      0.951919  
     145A      0.978204   146A      0.984853   147A      0.997018  
     148A      1.011170   149A      1.024031   150A      1.030087  
     151A      1.046624   152A      1.051507   153A      1.066503  
     154A      1.071005   155A      1.080857   156A      1.100853  
     157A      1.108045   158A      1.128099   159A      1.134152  
     160A      1.150240   161A      1.158667   162A      1.166170  
     163A      1.175167   164A      1.184867   165A      1.220538  
     166A      1.221597   167A      1.236926   168A      1.267883  
     169A      1.269573   170A      1.293615   171A      1.303390  
     172A      1.311431   173A      1.315046   174A      1.340590  
     175A      1.365802   176A      1.381740   177A      1.401039  
     178A      1.434895   179A      1.444623   180A      1.474706  
     181A      1.493138   182A      1.506929   183A      1.512021  
     184A      1.526136   185A      1.560976   186A      1.590889  
     187A      1.608679   188A      1.637435   189A      1.669494  
     190A      1.676626   191A      1.688803   192A      1.703636  
     193A      1.723957   194A      1.749249   195A      1.764367  
     196A      1.805025   197A      1.875589   198A      1.932406  
     199A      1.943562   200A      1.988139   201A      2.021453  
     202A      2.041008   203A      2.057662   204A      2.088810  
     205A      2.109017   206A      2.134770   207A      2.144708  
     208A      2.168063   209A      2.189999   210A      2.200828  
     211A      2.216579   212A      2.230454   213A      2.233800  
     214A      2.261802   215A      2.275832   216A      2.277685  
     217A      2.289202   218A      2.307637   219A      2.335645  
     220A      2.360646   221A      2.380504   222A      2.389121  
     223A      2.393758   224A      2.394478   225A      2.435199  
     226A      2.443822   227A      2.464942   228A      2.478264  
     229A      2.499843   230A      2.513533   231A      2.531785  
     232A      2.548766   233A      2.570195   234A      2.584820  
     235A      2.631271   236A      2.642959   237A      2.667457  
     238A      2.702951   239A      2.718827   240A      2.733013  
     241A      2.826807   242A      2.827848   243A      2.834707  
     244A      2.869736   245A      2.889973   246A      2.901543  
     247A      2.918563   248A      2.945081   249A      2.999195  
     250A      3.028005   251A      3.055311   252A      3.089769  
     253A      3.092440   254A      3.122703   255A      3.139972  
     256A      3.181906   257A      3.189011   258A      3.222030  
     259A      3.254069   260A      3.289117   261A      3.297913  
     262A      3.355696   263A      3.380219   264A      3.395526  
     265A      3.423421   266A      3.448229   267A      3.487103  
     268A      3.497453   269A      3.520764   270A      3.633483  
     271A      3.666881   272A      3.686295   273A      3.735555  
     274A      3.770010   275A      3.851088   276A      3.889250  
     277A      3.964342   278A      4.035436   279A      4.094690  
     280A      4.209312   281A      4.244024   282A      4.448366  
     283A      4.463032   284A      4.658344   285A      4.707973  
     286A      4.749881   287A      4.810721   288A      4.994809  
     289A      5.076740   290A      5.241395   291A      5.531182  
     292A      5.668889   293A      5.826795   294A      6.106636  
     295A      6.318281   296A      6.708329   297A      6.967805  
     298A     18.111139   299A     18.647811   300A     19.373551  
     301A     25.245480   302A     25.704884  

    Final Occupation by Irrep:
              A 
    DOCC [    18 ]

  @DF-RHF Final Energy:  -224.76243506221232

   => Energetics <=

    Nuclear Repulsion Energy =            166.6286029064278864
    One-Electron Energy =                -633.5084736003977923
    Two-Electron Energy =                 242.1174356317575871
    Total Energy =                       -224.7624350622123188

Computation Completed


Properties will be evaluated at   0.000000,   0.000000,   0.000000 [a0]

Properties computed using the SCF density matrix

  Nuclear Dipole Moment: [e a0]
     X:   162.7525      Y:  -540.4107      Z:  1395.5606

  Electronic Dipole Moment: [e a0]
     X:  -162.4615      Y:   539.8467      Z: -1396.2637

  Dipole Moment: [e a0]
     X:     0.2909      Y:    -0.5640      Z:    -0.7031     Total:     0.9472

  Dipole Moment: [D]
     X:     0.7394      Y:    -1.4336      Z:    -1.7871     Total:     2.4074


*** tstop() called on ds1 at Mon Oct  4 13:54:03 2021
Module time:
	user time   =      15.66 seconds =       0.26 minutes
	system time =       0.33 seconds =       0.01 minutes
	total time  =          3 seconds =       0.05 minutes
Total time:
	user time   =      54.36 seconds =       0.91 minutes
	system time =       1.25 seconds =       0.02 minutes
	total time  =         11 seconds =       0.18 minutes
  Constructing Basis Sets for SAPT...

   => Loading Basis Set <=

    Name: (AUG-CC-PVDZ AUX)
    Role: RIFIT
    Keyword: DF_BASIS_SAPT
    atoms 1-2, 10-11 entry N          line   158 file /theoryfs2/ds/csargent/miniconda3/envs/cle/share/psi4/basis/aug-cc-pvdz-ri.gbs 
    atoms 3-6, 12-15 entry H          line    30 file /theoryfs2/ds/csargent/miniconda3/envs/cle/share/psi4/basis/aug-cc-pvdz-ri.gbs 
    atoms 7-9, 16-18 entry C          line   112 file /theoryfs2/ds/csargent/miniconda3/envs/cle/share/psi4/basis/aug-cc-pvdz-ri.gbs 


  //>>>>>>>>>>>>>>>>>>>>>>>>>>>>>>>>>>>//
  //               SAPT0               //
  //<<<<<<<<<<<<<<<<<<<<<<<<<<<<<<<<<<<//


*** tstart() called on ds1
*** at Mon Oct  4 13:54:04 2021

        SAPT0  
    Ed Hohenstein
     6 June 2009

      Orbital Information
  --------------------------
    NSO        =       302
    NMO        =       302
    NRI        =       904
    NOCC A     =        18
    NOCC B     =        18
    FOCC A     =         5
    FOCC B     =         5
    NVIR A     =       284
    NVIR B     =       284

    Elst10,r            =    -0.000010112934 [Eh]
    Exch10              =     0.000000000000 [Eh]
    Exch10 (S^2)        =     0.000000000000 [Eh]

    Iter     Energy [mEh]          dE [mEh]         Residual      Time [s]
       1      -0.00000586       0.000005863       0.025720965             0
       2      -0.00000535      -0.000000517       0.006514473             0
       3      -0.00000575       0.000000407       0.003271789             0
       4      -0.00000591       0.000000162       0.000787662             0
       5      -0.00000589      -0.000000024       0.000504935             0
       6      -0.00000588      -0.000000008       0.000168913             0
       7      -0.00000589       0.000000003       0.000062883             1
       8      -0.00000589       0.000000001       0.000021173             1
       9      -0.00000589      -0.000000000       0.000005396             1
      10      -0.00000589      -0.000000000       0.000001600             1
      11      -0.00000589       0.000000000       0.000000683             1

    CHF Iterations converged


    Iter     Energy [mEh]          dE [mEh]         Residual      Time [s]
       1      -0.00000688       0.000006879       0.026476829             0
       2      -0.00000628      -0.000000598       0.006500188             0
       3      -0.00000675       0.000000469       0.003181790             0
       4      -0.00000691       0.000000161       0.000716908             1
       5      -0.00000689      -0.000000021       0.000472694             1
       6      -0.00000688      -0.000000009       0.000152374             1
       7      -0.00000688       0.000000003       0.000072128             1
       8      -0.00000689       0.000000001       0.000023996             1
       9      -0.00000689      -0.000000000       0.000005778             1
      10      -0.00000689      -0.000000000       0.000001371             1
      11      -0.00000689       0.000000000       0.000000502             1

    CHF Iterations converged

    Ind20,r (A<-B)      =    -0.000000005886 [Eh]
    Ind20,r (B<-A)      =    -0.000000006886 [Eh]
    Ind20,r             =    -0.000000012772 [Eh]
    Exch-Ind20,r (A<-B) =     0.000000000000 [Eh]
    Exch-Ind20,r (B<-A) =     0.000000000000 [Eh]
    Exch-Ind20,r        =     0.000000000000 [Eh]
    Disp20              =    -0.000000241963 [Eh]
    Disp20 (SS)         =    -0.000000120982 [Eh]
    Disp20 (OS)         =    -0.000000120982 [Eh]
    Exch-Disp20         =     0.000000000000 [Eh]
    Exch-Disp20 (SS)    =     0.000000000000 [Eh]
    Exch-Disp20 (OS)    =     0.000000000000 [Eh]

    SAPT Results 
  --------------------------------------------------------------------------------------------------------
    Electrostatics                 -0.01011293 [mEh]      -0.00634596 [kcal/mol]      -0.02655150 [kJ/mol]
      Elst10,r                     -0.01011293 [mEh]      -0.00634596 [kcal/mol]      -0.02655150 [kJ/mol]

    Exchange                        0.00000000 [mEh]       0.00000000 [kcal/mol]       0.00000000 [kJ/mol]
      Exch10                        0.00000000 [mEh]       0.00000000 [kcal/mol]       0.00000000 [kJ/mol]
      Exch10(S^2)                   0.00000000 [mEh]       0.00000000 [kcal/mol]       0.00000000 [kJ/mol]

    Induction                       0.00003537 [mEh]       0.00002219 [kcal/mol]       0.00009286 [kJ/mol]
      Ind20,r                      -0.00001277 [mEh]      -0.00000801 [kcal/mol]      -0.00003353 [kJ/mol]
      Exch-Ind20,r                  0.00000000 [mEh]       0.00000000 [kcal/mol]       0.00000000 [kJ/mol]
      delta HF,r (2)                0.00004814 [mEh]       0.00003021 [kcal/mol]       0.00012639 [kJ/mol]

    Dispersion                     -0.00024196 [mEh]      -0.00015183 [kcal/mol]      -0.00063527 [kJ/mol]
      Disp20                       -0.00024196 [mEh]      -0.00015183 [kcal/mol]      -0.00063527 [kJ/mol]
      Exch-Disp20                   0.00000000 [mEh]       0.00000000 [kcal/mol]       0.00000000 [kJ/mol]
      Disp20 (SS)                  -0.00012098 [mEh]      -0.00007592 [kcal/mol]      -0.00031764 [kJ/mol]
      Disp20 (OS)                  -0.00012098 [mEh]      -0.00007592 [kcal/mol]      -0.00031764 [kJ/mol]
      Exch-Disp20 (SS)              0.00000000 [mEh]       0.00000000 [kcal/mol]       0.00000000 [kJ/mol]
      Exch-Disp20 (OS)              0.00000000 [mEh]       0.00000000 [kcal/mol]       0.00000000 [kJ/mol]

  Total HF                         -0.01007757 [mEh]      -0.00632377 [kcal/mol]      -0.02645865 [kJ/mol]
  Total SAPT0                      -0.01031953 [mEh]      -0.00647560 [kcal/mol]      -0.02709392 [kJ/mol]

  Special recipe for scaled SAPT0 (see Manual):
    Electrostatics sSAPT0          -0.01011293 [mEh]      -0.00634596 [kcal/mol]      -0.02655150 [kJ/mol]
    Exchange sSAPT0                 0.00000000 [mEh]       0.00000000 [kcal/mol]       0.00000000 [kJ/mol]
    Induction sSAPT0                0.00003537 [mEh]       0.00002219 [kcal/mol]       0.00009286 [kJ/mol]
    Dispersion sSAPT0              -0.00024196 [mEh]      -0.00015183 [kcal/mol]      -0.00063527 [kJ/mol]
  Total sSAPT0                     -0.01031953 [mEh]      -0.00647560 [kcal/mol]      -0.02709392 [kJ/mol]
  --------------------------------------------------------------------------------------------------------

*** tstop() called on ds1 at Mon Oct  4 13:54:13 2021
Module time:
	user time   =      43.99 seconds =       0.73 minutes
	system time =       3.81 seconds =       0.06 minutes
	total time  =          9 seconds =       0.15 minutes
Total time:
	user time   =      99.22 seconds =       1.65 minutes
	system time =       5.09 seconds =       0.08 minutes
	total time  =         21 seconds =       0.35 minutes


Warning! sapt0 does not have an associated derived wavefunction.The returned wavefunction is the dimer SCF wavefunction.


    Psi4 stopped on: Monday, 04 October 2021 01:54PM
    Psi4 wall time for execution: 0:00:21.39

*** Psi4 exiting successfully. Buy a developer a beer!
