
    -----------------------------------------------------------------------
          Psi4: An Open-Source Ab Initio Electronic Structure Package
                               Psi4 1.4rc3 

                         Git: Rev {HEAD} 080dba6 


    D. G. A. Smith, L. A. Burns, A. C. Simmonett, R. M. Parrish,
    M. C. Schieber, R. Galvelis, P. Kraus, H. Kruse, R. Di Remigio,
    A. Alenaizan, A. M. James, S. Lehtola, J. P. Misiewicz, M. Scheurer,
    R. A. Shaw, J. B. Schriber, Y. Xie, Z. L. Glick, D. A. Sirianni,
    J. S. O'Brien, J. M. Waldrop, A. Kumar, E. G. Hohenstein,
    B. P. Pritchard, B. R. Brooks, H. F. Schaefer III, A. Yu. Sokolov,
    K. Patkowski, A. E. DePrince III, U. Bozkaya, R. A. King,
    F. A. Evangelista, J. M. Turney, T. D. Crawford, C. D. Sherrill,
    J. Chem. Phys. 152(18) 184108 (2020). https://doi.org/10.1063/5.0006002

                            Additional Code Authors
    E. T. Seidl, C. L. Janssen, E. F. Valeev, M. L. Leininger,
    J. F. Gonthier, R. M. Richard, H. R. McAlexander, M. Saitow, X. Wang,
    P. Verma, and M. H. Lechner

             Previous Authors, Complete List of Code Contributors,
                       and Citations for Specific Modules
    https://github.com/psi4/psi4/blob/master/codemeta.json
    https://github.com/psi4/psi4/graphs/contributors
    http://psicode.org/psi4manual/master/introduction.html#citing-psifour

    -----------------------------------------------------------------------


    Psi4 started on: Monday, 04 October 2021 03:42PM

    Process ID: 13632
    Host:       ds1
    PSIDATADIR: /theoryfs2/ds/csargent/miniconda3/envs/cle/share/psi4
    Memory:     500.0 MiB
    Threads:    6
    
  ==> Input File <==

--------------------------------------------------------------------------
# PSI4 file produced by CrystaLattE

# Generated from:               pyrazole.xyz
# Psithon input for N-mer:      2mer-0+580
# Number of atoms per monomer:  [9, 9]
# Number of replicas:           1
# COM priority:                 1.827496558035e-05
# Minimum COM separations:      20.090 
# Separation priority:          2.659703060355e-05
# Minimum monomer separations:  17.728 
# Cutoff priority:              7.939214528525e-07
# Nuclear repulsion energy:     367.34448389178954

memory 7 GB

molecule Dimer_0_580 {
  N            6.27981210      -4.25303372       0.19313865 
  N            6.06870777      -2.28125697       1.80544317 
  H            3.66871156      -5.64628941      -1.96684001 
  H            0.69034521      -2.37545694      -0.42864236 
  H            3.35917442       0.17650601       3.09265017 
  H            7.35266782      -1.99461311       2.90680702 
  C            3.77952586      -1.21508453       1.76858172 
  C            2.38242998      -2.55505538       0.04607681 
  C            4.01771468      -4.38410490      -0.88761863 
--
  N           26.01342381     -26.08126125      17.65689117 
  N           26.13228607     -28.11916829      19.19406489 
  H           28.68658654     -23.68035128      16.93886082 
  H           31.58122310     -26.12289003      19.69399832 
  H           28.64479903     -29.83593904      21.59863463 
  H           24.66987785     -28.92914534      19.57983022 
  C           28.41512247     -28.44934396      20.22311374 
  C           29.89811491     -26.51967174      19.33319127 
  C           28.33680957     -25.13450393      17.74149332 
units = au
no_com
no_reorient
}

set {
  e_convergence 10
  d_convergence 10
  scf_type df
  mp2_type df
  cc_type df
  freeze_core true
}

energy('sapt0/aug-cc-pvdz')

--------------------------------------------------------------------------

  Memory set to   6.519 GiB by Python driver.

Scratch directory: /scratch/csargent/psi4.7158.66302/

Scratch directory: /scratch/csargent/psi4.7158.66302/

  //>>>>>>>>>>>>>>>>>>>>>>>>>>>>>>>>>>>//
  //              Dimer HF             //
  //<<<<<<<<<<<<<<<<<<<<<<<<<<<<<<<<<<<//


*** tstart() called on ds1
*** at Mon Oct  4 15:42:20 2021

   => Loading Basis Set <=

    Name: AUG-CC-PVDZ
    Role: ORBITAL
    Keyword: BASIS
    atoms 1-2, 10-11 entry N          line   218 file /theoryfs2/ds/csargent/miniconda3/envs/cle/share/psi4/basis/aug-cc-pvdz.gbs 
    atoms 3-6, 12-15 entry H          line    40 file /theoryfs2/ds/csargent/miniconda3/envs/cle/share/psi4/basis/aug-cc-pvdz.gbs 
    atoms 7-9, 16-18 entry C          line   182 file /theoryfs2/ds/csargent/miniconda3/envs/cle/share/psi4/basis/aug-cc-pvdz.gbs 


         ---------------------------------------------------------
                                   SCF
               by Justin Turney, Rob Parrish, Andy Simmonett
                          and Daniel G. A. Smith
                              RHF Reference
                        6 Threads,   6675 MiB Core
         ---------------------------------------------------------

  ==> Geometry <==

    Molecular point group: c1
    Full point group: C1

    Geometry (in Bohr), charge = 0, multiplicity = 1:

       Center              X                  Y                   Z               Mass       
    ------------   -----------------  -----------------  -----------------  -----------------
         N            6.279812100000    -4.253033720000     0.193138650000    14.003074004430
         N            6.068707770000    -2.281256970000     1.805443170000    14.003074004430
         H            3.668711560000    -5.646289410000    -1.966840010000     1.007825032230
         H            0.690345210000    -2.375456940000    -0.428642360000     1.007825032230
         H            3.359174420000     0.176506010000     3.092650170000     1.007825032230
         H            7.352667820000    -1.994613110000     2.906807020000     1.007825032230
         C            3.779525860000    -1.215084530000     1.768581720000    12.000000000000
         C            2.382429980000    -2.555055380000     0.046076810000    12.000000000000
         C            4.017714680000    -4.384104900000    -0.887618630000    12.000000000000
         N           26.013423810000   -26.081261250000    17.656891170000    14.003074004430
         N           26.132286070000   -28.119168290000    19.194064890000    14.003074004430
         H           28.686586540000   -23.680351280000    16.938860820000     1.007825032230
         H           31.581223100000   -26.122890030000    19.693998320000     1.007825032230
         H           28.644799030000   -29.835939040000    21.598634630000     1.007825032230
         H           24.669877850000   -28.929145340000    19.579830220000     1.007825032230
         C           28.415122470000   -28.449343960000    20.223113740000    12.000000000000
         C           29.898114910000   -26.519671740000    19.333191270000    12.000000000000
         C           28.336809570000   -25.134503930000    17.741493320000    12.000000000000

  Running in c1 symmetry.

  Rotational constants: A =      0.08527  B =      0.00047  C =      0.00047 [cm^-1]
  Rotational constants: A =   2556.38936  B =     14.11525  C =     14.09309 [MHz]
  Nuclear repulsion =  367.344483846643129

  Charge       = 0
  Multiplicity = 1
  Electrons    = 72
  Nalpha       = 36
  Nbeta        = 36

  ==> Algorithm <==

  SCF Algorithm Type is DF.
  DIIS enabled.
  MOM disabled.
  Fractional occupation disabled.
  Guess Type is SAD.
  Energy threshold   = 1.00e-10
  Density threshold  = 1.00e-10
  Integral threshold = 1.00e-12

  ==> Primary Basis <==

  Basis Set: AUG-CC-PVDZ
    Blend: AUG-CC-PVDZ
    Number of shells: 130
    Number of basis functions: 302
    Number of Cartesian functions: 322
    Spherical Harmonics?: true
    Max angular momentum: 2

   => Loading Basis Set <=

    Name: (AUG-CC-PVDZ AUX)
    Role: JKFIT
    Keyword: DF_BASIS_SCF
    atoms 1-2, 10-11 entry N          line   212 file /theoryfs2/ds/csargent/miniconda3/envs/cle/share/psi4/basis/aug-cc-pvdz-jkfit.gbs 
    atoms 3-6, 12-15 entry H          line    70 file /theoryfs2/ds/csargent/miniconda3/envs/cle/share/psi4/basis/aug-cc-pvdz-jkfit.gbs 
    atoms 7-9, 16-18 entry C          line   154 file /theoryfs2/ds/csargent/miniconda3/envs/cle/share/psi4/basis/aug-cc-pvdz-jkfit.gbs 

  ==> Integral Setup <==

  ==> DiskDFJK: Density-Fitted J/K Matrices <==

    J tasked:                  Yes
    K tasked:                  Yes
    wK tasked:                  No
    OpenMP threads:              6
    Integrals threads:           6
    Memory [MiB]:             5006
    Algorithm:                Core
    Integral Cache:           SAVE
    Schwarz Cutoff:          1E-12
    Fitting Condition:       1E-10

   => Auxiliary Basis Set <=

  Basis Set: (AUG-CC-PVDZ AUX)
    Blend: AUG-CC-PVDZ-JKFIT
    Number of shells: 376
    Number of basis functions: 1116
    Number of Cartesian functions: 1290
    Spherical Harmonics?: true
    Max angular momentum: 3

  Minimum eigenvalue in the overlap matrix is 3.0324469589E-05.
  Reciprocal condition number of the overlap matrix is 2.4867199614E-06.
    Using symmetric orthogonalization.

  ==> Pre-Iterations <==

  SCF Guess: Superposition of Atomic Densities via on-the-fly atomic UHF (no occupation information).

   -------------------------
    Irrep   Nso     Nmo    
   -------------------------
     A        302     302 
   -------------------------
    Total     302     302
   -------------------------

  ==> Iterations <==

                           Total Energy        Delta E     RMS |[F,P]|

   @DF-RHF iter SAD:  -449.44445655547588   -4.49444e+02   0.00000e+00 
   @DF-RHF iter   1:  -449.27104980719128    1.73407e-01   2.12804e-03 DIIS
   @DF-RHF iter   2:  -449.47977826278532   -2.08728e-01   9.73525e-04 DIIS
   @DF-RHF iter   3:  -449.52158636333058   -4.18081e-02   2.10070e-04 DIIS
   @DF-RHF iter   4:  -449.52435354138407   -2.76718e-03   8.54911e-05 DIIS
   @DF-RHF iter   5:  -449.52470937713747   -3.55836e-04   1.69540e-05 DIIS
   @DF-RHF iter   6:  -449.52474325940608   -3.38823e-05   7.02039e-06 DIIS
   @DF-RHF iter   7:  -449.52475116277725   -7.90337e-06   3.09069e-06 DIIS
   @DF-RHF iter   8:  -449.52475268111186   -1.51833e-06   1.43788e-06 DIIS
   @DF-RHF iter   9:  -449.52475301606592   -3.34954e-07   4.00768e-07 DIIS
   @DF-RHF iter  10:  -449.52475303371227   -1.76464e-08   1.21029e-07 DIIS
   @DF-RHF iter  11:  -449.52475303509391   -1.38164e-09   2.82895e-08 DIIS
   @DF-RHF iter  12:  -449.52475303518645   -9.25411e-11   8.24230e-09 DIIS
   @DF-RHF iter  13:  -449.52475303519469   -8.24230e-12   4.02814e-09 DIIS
   @DF-RHF iter  14:  -449.52475303519662   -1.93268e-12   1.39422e-09 DIIS
   @DF-RHF iter  15:  -449.52475303519719   -5.68434e-13   5.92168e-10 DIIS
   @DF-RHF iter  16:  -449.52475303519691    2.84217e-13   1.79513e-10 DIIS
   @DF-RHF iter  17:  -449.52475303519788   -9.66338e-13   6.45586e-11 DIIS
  Energy and wave function converged.


  ==> Post-Iterations <==

    Orbital Energies [Eh]
    ---------------------

    Doubly Occupied:                                                      

       1A    -15.635938     2A    -15.635570     3A    -15.591986  
       4A    -15.591656     5A    -11.279617     6A    -11.279259  
       7A    -11.237453     8A    -11.237129     9A    -11.209600  
      10A    -11.209267    11A     -1.386703    12A     -1.386266  
      13A     -1.121593    14A     -1.121246    15A     -1.066638  
      16A     -1.066261    17A     -0.872463    18A     -0.872119  
      19A     -0.836744    20A     -0.836420    21A     -0.756986  
      22A     -0.756659    23A     -0.645449    24A     -0.645100  
      25A     -0.620536    26A     -0.620197    27A     -0.608879  
      28A     -0.608485    29A     -0.583616    30A     -0.583286  
      31A     -0.461101    32A     -0.460734    33A     -0.370415  
      34A     -0.370069    35A     -0.345762    36A     -0.345406  

    Virtual:                                                              

      37A      0.030992    38A      0.031362    39A      0.042626  
      40A      0.042915    41A      0.049462    42A      0.049834  
      43A      0.063810    44A      0.064145    45A      0.101254  
      46A      0.101615    47A      0.104352    48A      0.104691  
      49A      0.117488    50A      0.117806    51A      0.126567  
      52A      0.126901    53A      0.133336    54A      0.133688  
      55A      0.138674    56A      0.138970    57A      0.141749  
      58A      0.142060    59A      0.157142    60A      0.157449  
      61A      0.164867    62A      0.165166    63A      0.171377  
      64A      0.171726    65A      0.178709    66A      0.179044  
      67A      0.196341    68A      0.196728    69A      0.205108  
      70A      0.205477    71A      0.206478    72A      0.206858  
      73A      0.240550    74A      0.240888    75A      0.243928  
      76A      0.244274    77A      0.245302    78A      0.245663  
      79A      0.271458    80A      0.271808    81A      0.279365  
      82A      0.279719    83A      0.301391    84A      0.301713  
      85A      0.325425    86A      0.325779    87A      0.352636  
      88A      0.352985    89A      0.355653    90A      0.355984  
      91A      0.375182    92A      0.375528    93A      0.396338  
      94A      0.396673    95A      0.403031    96A      0.403374  
      97A      0.415269    98A      0.415581    99A      0.432424  
     100A      0.432788   101A      0.443702   102A      0.444056  
     103A      0.453721   104A      0.454056   105A      0.460106  
     106A      0.460444   107A      0.478937   108A      0.479304  
     109A      0.498843   110A      0.499186   111A      0.508989  
     112A      0.509338   113A      0.522230   114A      0.522537  
     115A      0.541856   116A      0.542187   117A      0.574717  
     118A      0.575082   119A      0.586608   120A      0.586955  
     121A      0.590828   122A      0.591162   123A      0.602714  
     124A      0.603039   125A      0.621262   126A      0.621579  
     127A      0.646400   128A      0.646735   129A      0.655581  
     130A      0.655900   131A      0.676455   132A      0.676794  
     133A      0.698331   134A      0.698672   135A      0.700674  
     136A      0.701031   137A      0.721943   138A      0.722304  
     139A      0.725401   140A      0.725741   141A      0.748011  
     142A      0.748348   143A      0.758940   144A      0.759227  
     145A      0.773592   146A      0.773960   147A      0.781770  
     148A      0.782135   149A      0.828824   150A      0.829167  
     151A      0.838527   152A      0.838874   153A      0.848674  
     154A      0.849020   155A      0.881689   156A      0.882020  
     157A      0.889043   158A      0.889391   159A      0.907247  
     160A      0.907592   161A      0.925101   162A      0.925468  
     163A      0.942898   164A      0.943228   165A      0.978495  
     166A      0.978862   167A      0.985147   168A      0.985491  
     169A      1.011491   170A      1.011827   171A      1.046936  
     172A      1.047281   173A      1.066793   174A      1.067131  
     175A      1.101148   176A      1.101505   177A      1.128397  
     178A      1.128703   179A      1.134450   180A      1.134846  
     181A      1.150525   182A      1.150868   183A      1.175463  
     184A      1.175809   185A      1.220845   186A      1.221207  
     187A      1.269870   188A      1.270201   189A      1.303694  
     190A      1.303999   191A      1.311732   192A      1.312059  
     193A      1.366105   194A      1.366467   195A      1.401331  
     196A      1.401674   197A      1.475011   198A      1.475357  
     199A      1.512315   200A      1.512680   201A      1.526428  
     202A      1.526762   203A      1.561272   204A      1.561628  
     205A      1.591171   206A      1.591505   207A      1.608971  
     208A      1.609303   209A      1.637718   210A      1.638063  
     211A      1.669780   212A      1.670100   213A      1.703926  
     214A      1.704274   215A      1.724251   216A      1.724596  
     217A      1.749547   218A      1.749860   219A      1.764659  
     220A      1.765013   221A      1.805323   222A      1.805693  
     223A      1.875873   224A      1.876264   225A      1.932702  
     226A      1.933035   227A      1.943845   228A      1.944181  
     229A      1.988437   230A      1.988705   231A      2.021752  
     232A      2.022093   233A      2.057953   234A      2.058251  
     235A      2.089098   236A      2.089478   237A      2.145004  
     238A      2.145334   239A      2.190287   240A      2.190636  
     241A      2.201122   242A      2.201464   243A      2.230748  
     244A      2.231107   245A      2.276127   246A      2.276461  
     247A      2.307928   248A      2.308284   249A      2.360941  
     250A      2.361355   251A      2.389418   252A      2.389778  
     253A      2.394052   254A      2.394483   255A      2.435500  
     256A      2.435906   257A      2.465238   258A      2.465631  
     259A      2.532081   260A      2.532445   261A      2.570491  
     262A      2.570881   263A      2.585116   264A      2.585373  
     265A      2.643254   266A      2.643609   267A      2.733300  
     268A      2.733668   269A      2.827108   270A      2.827490  
     271A      2.835007   272A      2.835400   273A      2.901842  
     274A      2.902244   275A      2.918858   276A      2.919252  
     277A      2.999487   278A      2.999800   279A      3.055606  
     280A      3.055973   281A      3.092744   282A      3.093018  
     283A      3.122998   284A      3.123375   285A      3.189314  
     286A      3.189580   287A      3.222323   288A      3.222649  
     289A      3.298218   290A      3.298522   291A      3.380503  
     292A      3.380864   293A      3.521063   294A      3.521382  
     295A      3.686589   296A      3.687203   297A      3.889551  
     298A      3.889986   299A      4.209617   300A      4.210088  
     301A      4.463322   302A      4.463867  

    Final Occupation by Irrep:
              A 
    DOCC [    36 ]

  @DF-RHF Final Energy:  -449.52475303519788

   => Energetics <=

    Nuclear Repulsion Energy =            367.3444838466431293
    One-Electron Energy =               -1335.2252574444603397
    Two-Electron Energy =                 518.3560205626192783
    Total Energy =                       -449.5247530351979321

Computation Completed


Properties will be evaluated at   0.000000,   0.000000,   0.000000 [a0]

Properties computed using the SCF density matrix

  Nuclear Dipole Moment: [e a0]
     X:  1161.0913      Y: -1073.0978      Z:   702.7111

  Electronic Dipole Moment: [e a0]
     X: -1161.2023      Y:  1073.1646      Z:  -701.4289

  Dipole Moment: [e a0]
     X:    -0.1110      Y:     0.0668      Z:     1.2822     Total:     1.2887

  Dipole Moment: [D]
     X:    -0.2822      Y:     0.1699      Z:     3.2590     Total:     3.2756


*** tstop() called on ds1 at Mon Oct  4 15:42:25 2021
Module time:
	user time   =      21.83 seconds =       0.36 minutes
	system time =       0.59 seconds =       0.01 minutes
	total time  =          5 seconds =       0.08 minutes
Total time:
	user time   =      21.83 seconds =       0.36 minutes
	system time =       0.59 seconds =       0.01 minutes
	total time  =          5 seconds =       0.08 minutes

  //>>>>>>>>>>>>>>>>>>>>>>>>>>>>>>>>>>>//
  //            Monomer A HF           //
  //<<<<<<<<<<<<<<<<<<<<<<<<<<<<<<<<<<<//


*** tstart() called on ds1
*** at Mon Oct  4 15:42:25 2021

   => Loading Basis Set <=

    Name: AUG-CC-PVDZ
    Role: ORBITAL
    Keyword: BASIS
    atoms 1-2, 10-11 entry N          line   218 file /theoryfs2/ds/csargent/miniconda3/envs/cle/share/psi4/basis/aug-cc-pvdz.gbs 
    atoms 3-6, 12-15 entry H          line    40 file /theoryfs2/ds/csargent/miniconda3/envs/cle/share/psi4/basis/aug-cc-pvdz.gbs 
    atoms 7-9, 16-18 entry C          line   182 file /theoryfs2/ds/csargent/miniconda3/envs/cle/share/psi4/basis/aug-cc-pvdz.gbs 


         ---------------------------------------------------------
                                   SCF
               by Justin Turney, Rob Parrish, Andy Simmonett
                          and Daniel G. A. Smith
                              RHF Reference
                        6 Threads,   6675 MiB Core
         ---------------------------------------------------------

  ==> Geometry <==

    Molecular point group: c1
    Full point group: C1

    Geometry (in Bohr), charge = 0, multiplicity = 1:

       Center              X                  Y                   Z               Mass       
    ------------   -----------------  -----------------  -----------------  -----------------
         N            6.279812100000    -4.253033720000     0.193138650000    14.003074004430
         N            6.068707770000    -2.281256970000     1.805443170000    14.003074004430
         H            3.668711560000    -5.646289410000    -1.966840010000     1.007825032230
         H            0.690345210000    -2.375456940000    -0.428642360000     1.007825032230
         H            3.359174420000     0.176506010000     3.092650170000     1.007825032230
         H            7.352667820000    -1.994613110000     2.906807020000     1.007825032230
         C            3.779525860000    -1.215084530000     1.768581720000    12.000000000000
         C            2.382429980000    -2.555055380000     0.046076810000    12.000000000000
         C            4.017714680000    -4.384104900000    -0.887618630000    12.000000000000
      Gh(N)          26.013423810000   -26.081261250000    17.656891170000    14.003074004430
      Gh(N)          26.132286070000   -28.119168290000    19.194064890000    14.003074004430
      Gh(H)          28.686586540000   -23.680351280000    16.938860820000     1.007825032230
      Gh(H)          31.581223100000   -26.122890030000    19.693998320000     1.007825032230
      Gh(H)          28.644799030000   -29.835939040000    21.598634630000     1.007825032230
      Gh(H)          24.669877850000   -28.929145340000    19.579830220000     1.007825032230
      Gh(C)          28.415122470000   -28.449343960000    20.223113740000    12.000000000000
      Gh(C)          29.898114910000   -26.519671740000    19.333191270000    12.000000000000
      Gh(C)          28.336809570000   -25.134503930000    17.741493320000    12.000000000000

  Running in c1 symmetry.

  Rotational constants: A =      0.08527  B =      0.00047  C =      0.00047 [cm^-1]
  Rotational constants: A =   2556.38936  B =     14.11525  C =     14.09309 [MHz]
  Nuclear repulsion =  166.624056450327203

  Charge       = 0
  Multiplicity = 1
  Electrons    = 36
  Nalpha       = 18
  Nbeta        = 18

  ==> Algorithm <==

  SCF Algorithm Type is DF.
  DIIS enabled.
  MOM disabled.
  Fractional occupation disabled.
  Guess Type is SAD.
  Energy threshold   = 1.00e-10
  Density threshold  = 1.00e-10
  Integral threshold = 1.00e-12

  ==> Primary Basis <==

  Basis Set: AUG-CC-PVDZ
    Blend: AUG-CC-PVDZ
    Number of shells: 130
    Number of basis functions: 302
    Number of Cartesian functions: 322
    Spherical Harmonics?: true
    Max angular momentum: 2

   => Loading Basis Set <=

    Name: (AUG-CC-PVDZ AUX)
    Role: JKFIT
    Keyword: DF_BASIS_SCF
    atoms 1-2, 10-11 entry N          line   212 file /theoryfs2/ds/csargent/miniconda3/envs/cle/share/psi4/basis/aug-cc-pvdz-jkfit.gbs 
    atoms 3-6, 12-15 entry H          line    70 file /theoryfs2/ds/csargent/miniconda3/envs/cle/share/psi4/basis/aug-cc-pvdz-jkfit.gbs 
    atoms 7-9, 16-18 entry C          line   154 file /theoryfs2/ds/csargent/miniconda3/envs/cle/share/psi4/basis/aug-cc-pvdz-jkfit.gbs 

  ==> Integral Setup <==

  ==> DiskDFJK: Density-Fitted J/K Matrices <==

    J tasked:                  Yes
    K tasked:                  Yes
    wK tasked:                  No
    OpenMP threads:              6
    Integrals threads:           6
    Memory [MiB]:             5006
    Algorithm:                Core
    Integral Cache:           LOAD
    Schwarz Cutoff:          1E-12
    Fitting Condition:       1E-10

   => Auxiliary Basis Set <=

  Basis Set: (AUG-CC-PVDZ AUX)
    Blend: AUG-CC-PVDZ-JKFIT
    Number of shells: 376
    Number of basis functions: 1116
    Number of Cartesian functions: 1290
    Spherical Harmonics?: true
    Max angular momentum: 3

  Minimum eigenvalue in the overlap matrix is 3.0324469589E-05.
  Reciprocal condition number of the overlap matrix is 2.4867199614E-06.
    Using symmetric orthogonalization.

  ==> Pre-Iterations <==

  SCF Guess: Superposition of Atomic Densities via on-the-fly atomic UHF (no occupation information).

   -------------------------
    Irrep   Nso     Nmo    
   -------------------------
     A        302     302 
   -------------------------
    Total     302     302
   -------------------------

  ==> Iterations <==

                           Total Energy        Delta E     RMS |[F,P]|

   @DF-RHF iter SAD:  -224.72194801218998   -2.24722e+02   0.00000e+00 
   @DF-RHF iter   1:  -224.63549169967709    8.64563e-02   1.50472e-03 DIIS
   @DF-RHF iter   2:  -224.73984613244048   -1.04354e-01   6.88462e-04 DIIS
   @DF-RHF iter   3:  -224.76075487130362   -2.09087e-02   1.48626e-04 DIIS
   @DF-RHF iter   4:  -224.76213931508298   -1.38444e-03   6.05310e-05 DIIS
   @DF-RHF iter   5:  -224.76231766984168   -1.78355e-04   1.19893e-05 DIIS
   @DF-RHF iter   6:  -224.76233462731534   -1.69575e-05   4.96772e-06 DIIS
   @DF-RHF iter   7:  -224.76233858335286   -3.95604e-06   2.18806e-06 DIIS
   @DF-RHF iter   8:  -224.76233934409473   -7.60742e-07   1.01700e-06 DIIS
   @DF-RHF iter   9:  -224.76233951173705   -1.67642e-07   2.83302e-07 DIIS
   @DF-RHF iter  10:  -224.76233952055770   -8.82065e-09   8.55547e-08 DIIS
   @DF-RHF iter  11:  -224.76233952124718   -6.89482e-10   1.99714e-08 DIIS
   @DF-RHF iter  12:  -224.76233952129363   -4.64411e-11   5.81092e-09 DIIS
   @DF-RHF iter  13:  -224.76233952129775   -4.12115e-12   2.83097e-09 DIIS
   @DF-RHF iter  14:  -224.76233952129857   -8.24230e-13   9.75191e-10 DIIS
   @DF-RHF iter  15:  -224.76233952129832    2.55795e-13   4.15547e-10 DIIS
   @DF-RHF iter  16:  -224.76233952129849   -1.70530e-13   1.25998e-10 DIIS
   @DF-RHF iter  17:  -224.76233952129891   -4.26326e-13   4.47781e-11 DIIS
  Energy and wave function converged.


  ==> Post-Iterations <==

    Orbital Energies [Eh]
    ---------------------

    Doubly Occupied:                                                      

       1A    -15.636223     2A    -15.592313     3A    -11.279894  
       4A    -11.237784     5A    -11.209891     6A     -1.386922  
       7A     -1.121901     8A     -1.066898     9A     -0.872768  
      10A     -0.837061    11A     -0.757292    12A     -0.645746  
      13A     -0.620834    14A     -0.609140    15A     -0.583920  
      16A     -0.461404    17A     -0.370721    18A     -0.346048  

    Virtual:                                                              

      19A      0.022990    20A      0.030764    21A      0.040330  
      22A      0.042368    23A      0.044456    24A      0.049159  
      25A      0.063520    26A      0.066174    27A      0.084288  
      28A      0.091087    29A      0.099306    30A      0.100998  
      31A      0.104029    32A      0.117179    33A      0.118660  
      34A      0.126149    35A      0.126270    36A      0.128532  
      37A      0.133069    38A      0.133691    39A      0.134430  
      40A      0.138403    41A      0.141490    42A      0.156889  
      43A      0.158873    44A      0.164592    45A      0.166261  
      46A      0.171075    47A      0.178408    48A      0.179516  
      49A      0.195838    50A      0.196042    51A      0.201858  
      52A      0.204793    53A      0.206162    54A      0.223309  
      55A      0.225476    56A      0.228605    57A      0.235916  
      58A      0.240236    59A      0.243626    60A      0.244965  
      61A      0.264460    62A      0.271127    63A      0.271344  
      64A      0.279080    65A      0.301010    66A      0.322299  
      67A      0.325148    68A      0.340409    69A      0.352358  
      70A      0.355357    71A      0.366899    72A      0.373236  
      73A      0.374907    74A      0.384051    75A      0.396061  
      76A      0.402741    77A      0.414998    78A      0.427798  
      79A      0.432132    80A      0.432394    81A      0.441492  
      82A      0.442634    83A      0.443385    84A      0.453393  
      85A      0.456348    86A      0.457764    87A      0.459816  
      88A      0.462223    89A      0.478655    90A      0.498543  
      91A      0.508690    92A      0.510063    93A      0.519757  
      94A      0.521917    95A      0.533464    96A      0.538393  
      97A      0.541560    98A      0.559659    99A      0.569168  
     100A      0.572177   101A      0.574432   102A      0.586318  
     103A      0.590538   104A      0.595489   105A      0.602413  
     106A      0.613728   107A      0.620953   108A      0.621614  
     109A      0.633880   110A      0.646110   111A      0.655295  
     112A      0.676162   113A      0.691172   114A      0.698041  
     115A      0.700391   116A      0.708172   117A      0.719790  
     118A      0.721667   119A      0.725115   120A      0.735997  
     121A      0.745721   122A      0.747709   123A      0.758592  
     124A      0.773318   125A      0.781481   126A      0.790073  
     127A      0.798463   128A      0.814793   129A      0.821303  
     130A      0.828504   131A      0.838230   132A      0.848394  
     133A      0.852290   134A      0.855446   135A      0.871360  
     136A      0.881395   137A      0.881433   138A      0.888767  
     139A      0.896040   140A      0.906950   141A      0.916521  
     142A      0.924815   143A      0.942582   144A      0.952490  
     145A      0.978222   146A      0.984850   147A      0.997570  
     148A      1.011149   149A      1.024566   150A      1.030642  
     151A      1.046606   152A      1.052038   153A      1.066503  
     154A      1.071480   155A      1.081397   156A      1.100852  
     157A      1.108621   158A      1.128058   159A      1.134196  
     160A      1.150235   161A      1.159229   162A      1.166749  
     163A      1.175168   164A      1.185411   165A      1.220548  
     166A      1.222186   167A      1.237495   168A      1.268432  
     169A      1.269556   170A      1.294215   171A      1.303342  
     172A      1.311399   173A      1.315614   174A      1.341136  
     175A      1.365807   176A      1.382309   177A      1.401043  
     178A      1.435481   179A      1.445216   180A      1.474691  
     181A      1.493669   182A      1.507534   183A      1.512027  
     184A      1.526129   185A      1.560989   186A      1.590882  
     187A      1.608669   188A      1.637437   189A      1.669472  
     190A      1.677202   191A      1.689377   192A      1.703634  
     193A      1.723950   194A      1.749215   195A      1.764373  
     196A      1.805048   197A      1.875632   198A      1.932390  
     199A      1.943558   200A      1.988067   201A      2.021445  
     202A      2.041522   203A      2.057611   204A      2.088839  
     205A      2.109509   206A      2.135247   207A      2.144687  
     208A      2.168542   209A      2.190005   210A      2.200827  
     211A      2.217070   212A      2.230457   213A      2.234310  
     214A      2.262322   215A      2.275825   216A      2.278190  
     217A      2.289713   218A      2.307640   219A      2.336096  
     220A      2.360716   221A      2.381073   222A      2.389130  
     223A      2.393822   224A      2.394986   225A      2.435246  
     226A      2.444314   227A      2.464967   228A      2.478745  
     229A      2.500384   230A      2.514152   231A      2.531798  
     232A      2.549263   233A      2.570232   234A      2.584716  
     235A      2.631798   236A      2.642961   237A      2.667996  
     238A      2.703497   239A      2.719345   240A      2.733029  
     241A      2.826838   242A      2.828413   243A      2.834751  
     244A      2.870289   245A      2.890480   246A      2.901587  
     247A      2.918598   248A      2.945571   249A      2.999157  
     250A      3.028446   251A      3.055324   252A      3.090228  
     253A      3.092358   254A      3.122730   255A      3.140507  
     256A      3.182363   257A      3.188930   258A      3.222008  
     259A      3.254652   260A      3.289632   261A      3.297865  
     262A      3.356164   263A      3.380235   264A      3.396136  
     265A      3.423897   266A      3.448703   267A      3.487693  
     268A      3.498015   269A      3.520727   270A      3.634149  
     271A      3.667459   272A      3.686563   273A      3.736117  
     274A      3.770637   275A      3.851643   276A      3.889327  
     277A      3.965021   278A      4.036162   279A      4.095271  
     280A      4.209428   281A      4.244572   282A      4.448760  
     283A      4.463235   284A      4.659014   285A      4.708670  
     286A      4.750426   287A      4.811340   288A      4.995353  
     289A      5.077231   290A      5.241743   291A      5.531989  
     292A      5.669551   293A      5.827151   294A      6.107547  
     295A      6.318661   296A      6.708077   297A      6.968017  
     298A     18.111651   299A     18.648551   300A     19.374160  
     301A     25.245982   302A     25.705856  

    Final Occupation by Irrep:
              A 
    DOCC [    18 ]

  @DF-RHF Final Energy:  -224.76233952129891

   => Energetics <=

    Nuclear Repulsion Energy =            166.6240564503272026
    One-Electron Energy =                -633.4992733868498362
    Two-Electron Energy =                 242.1128774152237213
    Total Energy =                       -224.7623395212989124

Computation Completed


Properties will be evaluated at   0.000000,   0.000000,   0.000000 [a0]

Properties computed using the SCF density matrix

  Nuclear Dipole Moment: [e a0]
     X:   162.5886      Y:  -104.5054      Z:    23.1563

  Electronic Dipole Moment: [e a0]
     X:  -162.9913      Y:   105.1370      Z:   -22.5767

  Dipole Moment: [e a0]
     X:    -0.4027      Y:     0.6317      Z:     0.5796     Total:     0.9472

  Dipole Moment: [D]
     X:    -1.0235      Y:     1.6055      Z:     1.4733     Total:     2.4075


*** tstop() called on ds1 at Mon Oct  4 15:42:28 2021
Module time:
	user time   =      15.69 seconds =       0.26 minutes
	system time =       0.35 seconds =       0.01 minutes
	total time  =          3 seconds =       0.05 minutes
Total time:
	user time   =      37.54 seconds =       0.63 minutes
	system time =       0.94 seconds =       0.02 minutes
	total time  =          8 seconds =       0.13 minutes

  //>>>>>>>>>>>>>>>>>>>>>>>>>>>>>>>>>>>//
  //            Monomer B HF           //
  //<<<<<<<<<<<<<<<<<<<<<<<<<<<<<<<<<<<//


*** tstart() called on ds1
*** at Mon Oct  4 15:42:28 2021

   => Loading Basis Set <=

    Name: AUG-CC-PVDZ
    Role: ORBITAL
    Keyword: BASIS
    atoms 1-2, 10-11 entry N          line   218 file /theoryfs2/ds/csargent/miniconda3/envs/cle/share/psi4/basis/aug-cc-pvdz.gbs 
    atoms 3-6, 12-15 entry H          line    40 file /theoryfs2/ds/csargent/miniconda3/envs/cle/share/psi4/basis/aug-cc-pvdz.gbs 
    atoms 7-9, 16-18 entry C          line   182 file /theoryfs2/ds/csargent/miniconda3/envs/cle/share/psi4/basis/aug-cc-pvdz.gbs 


         ---------------------------------------------------------
                                   SCF
               by Justin Turney, Rob Parrish, Andy Simmonett
                          and Daniel G. A. Smith
                              RHF Reference
                        6 Threads,   6675 MiB Core
         ---------------------------------------------------------

  ==> Geometry <==

    Molecular point group: c1
    Full point group: C1

    Geometry (in Bohr), charge = 0, multiplicity = 1:

       Center              X                  Y                   Z               Mass       
    ------------   -----------------  -----------------  -----------------  -----------------
      Gh(N)           6.279812100000    -4.253033720000     0.193138650000    14.003074004430
      Gh(N)           6.068707770000    -2.281256970000     1.805443170000    14.003074004430
      Gh(H)           3.668711560000    -5.646289410000    -1.966840010000     1.007825032230
      Gh(H)           0.690345210000    -2.375456940000    -0.428642360000     1.007825032230
      Gh(H)           3.359174420000     0.176506010000     3.092650170000     1.007825032230
      Gh(H)           7.352667820000    -1.994613110000     2.906807020000     1.007825032230
      Gh(C)           3.779525860000    -1.215084530000     1.768581720000    12.000000000000
      Gh(C)           2.382429980000    -2.555055380000     0.046076810000    12.000000000000
      Gh(C)           4.017714680000    -4.384104900000    -0.887618630000    12.000000000000
         N           26.013423810000   -26.081261250000    17.656891170000    14.003074004430
         N           26.132286070000   -28.119168290000    19.194064890000    14.003074004430
         H           28.686586540000   -23.680351280000    16.938860820000     1.007825032230
         H           31.581223100000   -26.122890030000    19.693998320000     1.007825032230
         H           28.644799030000   -29.835939040000    21.598634630000     1.007825032230
         H           24.669877850000   -28.929145340000    19.579830220000     1.007825032230
         C           28.415122470000   -28.449343960000    20.223113740000    12.000000000000
         C           29.898114910000   -26.519671740000    19.333191270000    12.000000000000
         C           28.336809570000   -25.134503930000    17.741493320000    12.000000000000

  Running in c1 symmetry.

  Rotational constants: A =      0.08527  B =      0.00047  C =      0.00047 [cm^-1]
  Rotational constants: A =   2556.38936  B =     14.11525  C =     14.09309 [MHz]
  Nuclear repulsion =  166.628602767497711

  Charge       = 0
  Multiplicity = 1
  Electrons    = 36
  Nalpha       = 18
  Nbeta        = 18

  ==> Algorithm <==

  SCF Algorithm Type is DF.
  DIIS enabled.
  MOM disabled.
  Fractional occupation disabled.
  Guess Type is SAD.
  Energy threshold   = 1.00e-10
  Density threshold  = 1.00e-10
  Integral threshold = 1.00e-12

  ==> Primary Basis <==

  Basis Set: AUG-CC-PVDZ
    Blend: AUG-CC-PVDZ
    Number of shells: 130
    Number of basis functions: 302
    Number of Cartesian functions: 322
    Spherical Harmonics?: true
    Max angular momentum: 2

   => Loading Basis Set <=

    Name: (AUG-CC-PVDZ AUX)
    Role: JKFIT
    Keyword: DF_BASIS_SCF
    atoms 1-2, 10-11 entry N          line   212 file /theoryfs2/ds/csargent/miniconda3/envs/cle/share/psi4/basis/aug-cc-pvdz-jkfit.gbs 
    atoms 3-6, 12-15 entry H          line    70 file /theoryfs2/ds/csargent/miniconda3/envs/cle/share/psi4/basis/aug-cc-pvdz-jkfit.gbs 
    atoms 7-9, 16-18 entry C          line   154 file /theoryfs2/ds/csargent/miniconda3/envs/cle/share/psi4/basis/aug-cc-pvdz-jkfit.gbs 

  ==> Integral Setup <==

  ==> DiskDFJK: Density-Fitted J/K Matrices <==

    J tasked:                  Yes
    K tasked:                  Yes
    wK tasked:                  No
    OpenMP threads:              6
    Integrals threads:           6
    Memory [MiB]:             5006
    Algorithm:                Core
    Integral Cache:           LOAD
    Schwarz Cutoff:          1E-12
    Fitting Condition:       1E-10

   => Auxiliary Basis Set <=

  Basis Set: (AUG-CC-PVDZ AUX)
    Blend: AUG-CC-PVDZ-JKFIT
    Number of shells: 376
    Number of basis functions: 1116
    Number of Cartesian functions: 1290
    Spherical Harmonics?: true
    Max angular momentum: 3

  Minimum eigenvalue in the overlap matrix is 3.0324469589E-05.
  Reciprocal condition number of the overlap matrix is 2.4867199614E-06.
    Using symmetric orthogonalization.

  ==> Pre-Iterations <==

  SCF Guess: Superposition of Atomic Densities via on-the-fly atomic UHF (no occupation information).

   -------------------------
    Irrep   Nso     Nmo    
   -------------------------
     A        302     302 
   -------------------------
    Total     302     302
   -------------------------

  ==> Iterations <==

                           Total Energy        Delta E     RMS |[F,P]|

   @DF-RHF iter SAD:  -224.72250854301100   -2.24723e+02   0.00000e+00 
   @DF-RHF iter   1:  -224.63556596083049    8.69426e-02   1.50490e-03 DIIS
   @DF-RHF iter   2:  -224.73993304837202   -1.04367e-01   6.88620e-04 DIIS
   @DF-RHF iter   3:  -224.76085080180547   -2.09178e-02   1.48614e-04 DIIS
   @DF-RHF iter   4:  -224.76223500047564   -1.38420e-03   6.05151e-05 DIIS
   @DF-RHF iter   5:  -224.76241324497948   -1.78245e-04   1.19848e-05 DIIS
   @DF-RHF iter   6:  -224.76243017812826   -1.69331e-05   4.96323e-06 DIIS
   @DF-RHF iter   7:  -224.76243412597185   -3.94784e-06   2.18627e-06 DIIS
   @DF-RHF iter   8:  -224.76243488551069   -7.59539e-07   1.01631e-06 DIIS
   @DF-RHF iter   9:  -224.76243505301565   -1.67505e-07   2.83280e-07 DIIS
   @DF-RHF iter  10:  -224.76243506183306   -8.81741e-09   8.55270e-08 DIIS
   @DF-RHF iter  11:  -224.76243506252257   -6.89511e-10   1.99678e-08 DIIS
   @DF-RHF iter  12:  -224.76243506256847   -4.59011e-11   5.80973e-09 DIIS
   @DF-RHF iter  13:  -224.76243506257276   -4.29168e-12   2.83582e-09 DIIS
   @DF-RHF iter  14:  -224.76243506257367   -9.09495e-13   9.79833e-10 DIIS
   @DF-RHF iter  15:  -224.76243506257387   -1.98952e-13   4.16538e-10 DIIS
   @DF-RHF iter  16:  -224.76243506257393   -5.68434e-14   1.25809e-10 DIIS
   @DF-RHF iter  17:  -224.76243506257418   -2.55795e-13   4.47599e-11 DIIS
  Energy and wave function converged.


  ==> Post-Iterations <==

    Orbital Energies [Eh]
    ---------------------

    Doubly Occupied:                                                      

       1A    -15.636233     2A    -15.592291     3A    -11.279903  
       4A    -11.237759     5A    -11.209884     6A     -1.387001  
       7A     -1.121894     8A     -1.066928     9A     -0.872759  
      10A     -0.837039    11A     -0.757272    12A     -0.645745  
      13A     -0.620828    14A     -0.609177    15A     -0.583905  
      16A     -0.461413    17A     -0.370715    18A     -0.346055  

    Virtual:                                                              

      19A      0.023335    20A      0.030764    21A      0.040647  
      22A      0.042369    23A      0.044815    24A      0.049158  
      25A      0.063519    26A      0.066525    27A      0.084626  
      28A      0.091446    29A      0.099641    30A      0.101001  
      31A      0.104028    32A      0.117186    33A      0.118965  
      34A      0.126272    35A      0.126479    36A      0.128848  
      37A      0.133070    38A      0.134014    39A      0.134776  
      40A      0.138399    41A      0.141487    42A      0.156889  
      43A      0.159178    44A      0.164594    45A      0.166593  
      46A      0.171081    47A      0.178407    48A      0.179865  
      49A      0.196041    50A      0.196228    51A      0.202229  
      52A      0.204806    53A      0.206166    54A      0.223694  
      55A      0.225779    56A      0.228941    57A      0.236285  
      58A      0.240240    59A      0.243627    60A      0.244965  
      61A      0.264812    62A      0.271138    63A      0.271702  
      64A      0.279081    65A      0.301024    66A      0.322644  
      67A      0.325138    68A      0.340748    69A      0.352355  
      70A      0.355359    71A      0.367223    72A      0.373561  
      73A      0.374909    74A      0.384390    75A      0.396062  
      76A      0.402744    77A      0.415005    78A      0.428166  
      79A      0.432131    80A      0.432723    81A      0.441815  
      82A      0.442960    83A      0.443379    84A      0.453414  
      85A      0.456712    86A      0.458102    87A      0.459816  
      88A      0.462580    89A      0.478656    90A      0.498544  
      91A      0.508693    92A      0.510409    93A      0.520120  
      94A      0.521953    95A      0.533837    96A      0.538723  
      97A      0.541569    98A      0.560008    99A      0.569547  
     100A      0.572497   101A      0.574428   102A      0.586322  
     103A      0.590547   104A      0.595833   105A      0.602431  
     106A      0.614053   107A      0.620974   108A      0.621964  
     109A      0.634220   110A      0.646111   111A      0.655304  
     112A      0.676168   113A      0.691513   114A      0.698039  
     115A      0.700384   116A      0.708514   117A      0.720134  
     118A      0.721648   119A      0.725121   120A      0.736340  
     121A      0.746055   122A      0.747717   123A      0.758643  
     124A      0.773300   125A      0.781476   126A      0.790426  
     127A      0.798808   128A      0.815123   129A      0.821649  
     130A      0.828513   131A      0.838238   132A      0.848382  
     133A      0.852611   134A      0.855781   135A      0.871699  
     136A      0.881397   137A      0.881766   138A      0.888762  
     139A      0.896389   140A      0.906950   141A      0.916857  
     142A      0.924803   143A      0.942599   144A      0.952831  
     145A      0.978204   146A      0.984853   147A      0.997913  
     148A      1.011170   149A      1.024912   150A      1.031008  
     151A      1.046624   152A      1.052397   153A      1.066503  
     154A      1.071812   155A      1.081725   156A      1.100853  
     157A      1.108971   158A      1.128099   159A      1.134152  
     160A      1.150240   161A      1.159589   162A      1.167095  
     163A      1.175167   164A      1.185754   165A      1.220538  
     166A      1.222537   167A      1.237829   168A      1.268805  
     169A      1.269573   170A      1.294575   171A      1.303390  
     172A      1.311431   173A      1.315953   174A      1.341488  
     175A      1.365802   176A      1.382647   177A      1.401039  
     178A      1.435833   179A      1.445550   180A      1.474706  
     181A      1.494042   182A      1.507849   183A      1.512021  
     184A      1.526136   185A      1.560976   186A      1.590889  
     187A      1.608679   188A      1.637435   189A      1.669494  
     190A      1.677555   191A      1.689746   192A      1.703636  
     193A      1.723957   194A      1.749249   195A      1.764367  
     196A      1.805025   197A      1.875589   198A      1.932406  
     199A      1.943562   200A      1.988139   201A      2.021453  
     202A      2.041853   203A      2.057662   204A      2.088810  
     205A      2.109841   206A      2.135627   207A      2.144708  
     208A      2.168868   209A      2.189999   210A      2.200828  
     211A      2.217431   212A      2.230454   213A      2.234638  
     214A      2.262652   215A      2.275832   216A      2.278553  
     217A      2.290052   218A      2.307637   219A      2.336498  
     220A      2.360646   221A      2.381388   222A      2.389121  
     223A      2.393758   224A      2.395328   225A      2.435199  
     226A      2.444664   227A      2.464942   228A      2.479106  
     229A      2.500667   230A      2.514479   231A      2.531785  
     232A      2.549593   233A      2.570195   234A      2.584820  
     235A      2.632149   236A      2.642959   237A      2.668334  
     238A      2.703837   239A      2.719689   240A      2.733013  
     241A      2.826807   242A      2.828718   243A      2.834707  
     244A      2.870633   245A      2.890821   246A      2.901543  
     247A      2.918563   248A      2.945974   249A      2.999195  
     250A      3.028874   251A      3.055311   252A      3.090650  
     253A      3.092440   254A      3.122703   255A      3.140839  
     256A      3.182804   257A      3.189011   258A      3.222030  
     259A      3.254987   260A      3.290056   261A      3.297913  
     262A      3.356620   263A      3.380219   264A      3.396461  
     265A      3.424338   266A      3.449134   267A      3.487992  
     268A      3.498308   269A      3.520764   270A      3.634451  
     271A      3.667793   272A      3.686295   273A      3.736447  
     274A      3.770948   275A      3.852023   276A      3.889250  
     277A      3.965213   278A      4.036395   279A      4.095610  
     280A      4.209312   281A      4.244928   282A      4.449285  
     283A      4.463032   284A      4.659314   285A      4.708905  
     286A      4.750750   287A      4.811633   288A      4.995709  
     289A      5.077669   290A      5.242292   291A      5.532104  
     292A      5.669831   293A      5.827688   294A      6.107566  
     295A      6.319121   296A      6.709221   297A      6.968738  
     298A     18.111990   299A     18.648684   300A     19.374387  
     301A     25.246458   302A     25.705839  

    Final Occupation by Irrep:
              A 
    DOCC [    18 ]

  @DF-RHF Final Energy:  -224.76243506257418

   => Energetics <=

    Nuclear Repulsion Energy =            166.6286027674977106
    One-Electron Energy =                -633.5084733202751295
    Two-Electron Energy =                 242.1174354902032633
    Total Energy =                       -224.7624350625741840

Computation Completed


Properties will be evaluated at   0.000000,   0.000000,   0.000000 [a0]

Properties computed using the SCF density matrix

  Nuclear Dipole Moment: [e a0]
     X:   998.5027      Y:  -968.5925      Z:   679.5548

  Electronic Dipole Moment: [e a0]
     X:  -998.2118      Y:   968.0284      Z:  -678.8517

  Dipole Moment: [e a0]
     X:     0.2909      Y:    -0.5640      Z:     0.7031     Total:     0.9472

  Dipole Moment: [D]
     X:     0.7394      Y:    -1.4336      Z:     1.7871     Total:     2.4074


*** tstop() called on ds1 at Mon Oct  4 15:42:32 2021
Module time:
	user time   =      15.77 seconds =       0.26 minutes
	system time =       0.38 seconds =       0.01 minutes
	total time  =          4 seconds =       0.07 minutes
Total time:
	user time   =      53.34 seconds =       0.89 minutes
	system time =       1.32 seconds =       0.02 minutes
	total time  =         12 seconds =       0.20 minutes
  Constructing Basis Sets for SAPT...

   => Loading Basis Set <=

    Name: (AUG-CC-PVDZ AUX)
    Role: RIFIT
    Keyword: DF_BASIS_SAPT
    atoms 1-2, 10-11 entry N          line   158 file /theoryfs2/ds/csargent/miniconda3/envs/cle/share/psi4/basis/aug-cc-pvdz-ri.gbs 
    atoms 3-6, 12-15 entry H          line    30 file /theoryfs2/ds/csargent/miniconda3/envs/cle/share/psi4/basis/aug-cc-pvdz-ri.gbs 
    atoms 7-9, 16-18 entry C          line   112 file /theoryfs2/ds/csargent/miniconda3/envs/cle/share/psi4/basis/aug-cc-pvdz-ri.gbs 


  //>>>>>>>>>>>>>>>>>>>>>>>>>>>>>>>>>>>//
  //               SAPT0               //
  //<<<<<<<<<<<<<<<<<<<<<<<<<<<<<<<<<<<//


*** tstart() called on ds1
*** at Mon Oct  4 15:42:32 2021

        SAPT0  
    Ed Hohenstein
     6 June 2009

      Orbital Information
  --------------------------
    NSO        =       302
    NMO        =       302
    NRI        =       904
    NOCC A     =        18
    NOCC B     =        18
    FOCC A     =         5
    FOCC B     =         5
    NVIR A     =       284
    NVIR B     =       284

    Elst10,r            =     0.000021540927 [Eh]
    Exch10              =     0.000000000000 [Eh]
    Exch10 (S^2)        =     0.000000000000 [Eh]

    Iter     Energy [mEh]          dE [mEh]         Residual      Time [s]
       1      -0.00002923       0.000029225       0.063878147             0
       2      -0.00002647      -0.000002753       0.015000260             0
       3      -0.00002931       0.000002842       0.006606144             0
       4      -0.00002980       0.000000483       0.002048454             0
       5      -0.00002964      -0.000000157       0.001030676             0
       6      -0.00002962      -0.000000019       0.000339990             0
       7      -0.00002964       0.000000014       0.000116284             1
       8      -0.00002964       0.000000003       0.000031182             1
       9      -0.00002964      -0.000000001       0.000012866             1
      10      -0.00002964      -0.000000000       0.000003373             1
      11      -0.00002964       0.000000000       0.000001107             1
      12      -0.00002964      -0.000000000       0.000000544             1

    CHF Iterations converged


    Iter     Energy [mEh]          dE [mEh]         Residual      Time [s]
       1      -0.00001369       0.000013691       0.040220969             0
       2      -0.00001254      -0.000001148       0.010232427             0
       3      -0.00001367       0.000001124       0.004796798             1
       4      -0.00001398       0.000000310       0.001187184             1
       5      -0.00001393      -0.000000048       0.000770680             1
       6      -0.00001391      -0.000000020       0.000272765             1
       7      -0.00001391       0.000000006       0.000103986             1
       8      -0.00001392       0.000000002       0.000034890             1
       9      -0.00001392      -0.000000000       0.000008910             1
      10      -0.00001392      -0.000000000       0.000002848             1
      11      -0.00001392      -0.000000000       0.000000990             2

    CHF Iterations converged

    Ind20,r (A<-B)      =    -0.000000029637 [Eh]
    Ind20,r (B<-A)      =    -0.000000013917 [Eh]
    Ind20,r             =    -0.000000043553 [Eh]
    Exch-Ind20,r (A<-B) =     0.000000000000 [Eh]
    Exch-Ind20,r (B<-A) =     0.000000000000 [Eh]
    Exch-Ind20,r        =     0.000000000000 [Eh]
    Disp20              =    -0.000000391562 [Eh]
    Disp20 (SS)         =    -0.000000195781 [Eh]
    Disp20 (OS)         =    -0.000000195781 [Eh]
    Exch-Disp20         =     0.000000000000 [Eh]
    Exch-Disp20 (SS)    =     0.000000000000 [Eh]
    Exch-Disp20 (OS)    =     0.000000000000 [Eh]

    SAPT Results 
  --------------------------------------------------------------------------------------------------------
    Electrostatics                  0.02154093 [mEh]       0.01351714 [kcal/mol]       0.05655570 [kJ/mol]
      Elst10,r                      0.02154093 [mEh]       0.01351714 [kcal/mol]       0.05655570 [kJ/mol]

    Exchange                        0.00000000 [mEh]       0.00000000 [kcal/mol]       0.00000000 [kJ/mol]
      Exch10                        0.00000000 [mEh]       0.00000000 [kcal/mol]       0.00000000 [kJ/mol]
      Exch10(S^2)                   0.00000000 [mEh]       0.00000000 [kcal/mol]       0.00000000 [kJ/mol]

    Induction                       0.00000775 [mEh]       0.00000486 [kcal/mol]       0.00002034 [kJ/mol]
      Ind20,r                      -0.00004355 [mEh]      -0.00002733 [kcal/mol]      -0.00011435 [kJ/mol]
      Exch-Ind20,r                  0.00000000 [mEh]       0.00000000 [kcal/mol]       0.00000000 [kJ/mol]
      delta HF,r (2)                0.00005130 [mEh]       0.00003219 [kcal/mol]       0.00013469 [kJ/mol]

    Dispersion                     -0.00039156 [mEh]      -0.00024571 [kcal/mol]      -0.00102805 [kJ/mol]
      Disp20                       -0.00039156 [mEh]      -0.00024571 [kcal/mol]      -0.00102805 [kJ/mol]
      Exch-Disp20                   0.00000000 [mEh]       0.00000000 [kcal/mol]       0.00000000 [kJ/mol]
      Disp20 (SS)                  -0.00019578 [mEh]      -0.00012285 [kcal/mol]      -0.00051402 [kJ/mol]
      Disp20 (OS)                  -0.00019578 [mEh]      -0.00012285 [kcal/mol]      -0.00051402 [kJ/mol]
      Exch-Disp20 (SS)              0.00000000 [mEh]       0.00000000 [kcal/mol]       0.00000000 [kJ/mol]
      Exch-Disp20 (OS)              0.00000000 [mEh]       0.00000000 [kcal/mol]       0.00000000 [kJ/mol]

  Total HF                          0.02154868 [mEh]       0.01352200 [kcal/mol]       0.05657604 [kJ/mol]
  Total SAPT0                       0.02115711 [mEh]       0.01327629 [kcal/mol]       0.05554799 [kJ/mol]

  Special recipe for scaled SAPT0 (see Manual):
    Electrostatics sSAPT0           0.02154093 [mEh]       0.01351714 [kcal/mol]       0.05655570 [kJ/mol]
    Exchange sSAPT0                 0.00000000 [mEh]       0.00000000 [kcal/mol]       0.00000000 [kJ/mol]
    Induction sSAPT0                0.00000775 [mEh]       0.00000486 [kcal/mol]       0.00002034 [kJ/mol]
    Dispersion sSAPT0              -0.00039156 [mEh]      -0.00024571 [kcal/mol]      -0.00102805 [kJ/mol]
  Total sSAPT0                      0.02115711 [mEh]       0.01327629 [kcal/mol]       0.05554799 [kJ/mol]
  --------------------------------------------------------------------------------------------------------

*** tstop() called on ds1 at Mon Oct  4 15:42:41 2021
Module time:
	user time   =      44.15 seconds =       0.74 minutes
	system time =       3.89 seconds =       0.06 minutes
	total time  =          9 seconds =       0.15 minutes
Total time:
	user time   =      98.04 seconds =       1.63 minutes
	system time =       5.23 seconds =       0.09 minutes
	total time  =         21 seconds =       0.35 minutes


Warning! sapt0 does not have an associated derived wavefunction.The returned wavefunction is the dimer SCF wavefunction.


    Psi4 stopped on: Monday, 04 October 2021 03:42PM
    Psi4 wall time for execution: 0:00:20.89

*** Psi4 exiting successfully. Buy a developer a beer!
