
    -----------------------------------------------------------------------
          Psi4: An Open-Source Ab Initio Electronic Structure Package
                               Psi4 1.4rc3 

                         Git: Rev {HEAD} 080dba6 


    D. G. A. Smith, L. A. Burns, A. C. Simmonett, R. M. Parrish,
    M. C. Schieber, R. Galvelis, P. Kraus, H. Kruse, R. Di Remigio,
    A. Alenaizan, A. M. James, S. Lehtola, J. P. Misiewicz, M. Scheurer,
    R. A. Shaw, J. B. Schriber, Y. Xie, Z. L. Glick, D. A. Sirianni,
    J. S. O'Brien, J. M. Waldrop, A. Kumar, E. G. Hohenstein,
    B. P. Pritchard, B. R. Brooks, H. F. Schaefer III, A. Yu. Sokolov,
    K. Patkowski, A. E. DePrince III, U. Bozkaya, R. A. King,
    F. A. Evangelista, J. M. Turney, T. D. Crawford, C. D. Sherrill,
    J. Chem. Phys. 152(18) 184108 (2020). https://doi.org/10.1063/5.0006002

                            Additional Code Authors
    E. T. Seidl, C. L. Janssen, E. F. Valeev, M. L. Leininger,
    J. F. Gonthier, R. M. Richard, H. R. McAlexander, M. Saitow, X. Wang,
    P. Verma, and M. H. Lechner

             Previous Authors, Complete List of Code Contributors,
                       and Citations for Specific Modules
    https://github.com/psi4/psi4/blob/master/codemeta.json
    https://github.com/psi4/psi4/graphs/contributors
    http://psicode.org/psi4manual/master/introduction.html#citing-psifour

    -----------------------------------------------------------------------


    Psi4 started on: Monday, 04 October 2021 01:15PM

    Process ID: 7283
    Host:       ds1
    PSIDATADIR: /theoryfs2/ds/csargent/miniconda3/envs/cle/share/psi4
    Memory:     500.0 MiB
    Threads:    6
    
  ==> Input File <==

--------------------------------------------------------------------------
# PSI4 file produced by CrystaLattE

# Generated from:               pyrazole.xyz
# Psithon input for N-mer:      2mer-0+321
# Number of atoms per monomer:  [9, 9]
# Number of replicas:           2
# COM priority:                 2.137055462691e-05
# Minimum COM separations:      19.069 
# Separation priority:          3.183171537842e-05
# Minimum monomer separations:  16.697 
# Cutoff priority:              1.008819319345e-06
# Nuclear repulsion energy:     369.1400980603115

memory 7 GB

molecule Dimer_0_321 {
  N            6.27981210      -4.25303372       0.19313865 
  N            6.06870777      -2.28125697       1.80544317 
  H            3.66871156      -5.64628941      -1.96684001 
  H            0.69034521      -2.37545694      -0.42864236 
  H            3.35917442       0.17650601       3.09265017 
  H            7.35266782      -1.99461311       2.90680702 
  C            3.77952586      -1.21508453       1.76858172 
  C            2.38242998      -2.55505538       0.04607681 
  C            4.01771468      -4.38410490      -0.88761863 
--
  N           -9.19704487      -7.53338133      32.19092627 
  N           -9.40814920      -9.50515808      33.80323079 
  H          -11.80814541      -6.14012564      30.03094761 
  H          -14.78651176      -9.41095811      31.56914526 
  H          -12.11768255     -11.96292106      35.09043779 
  H           -8.12418914      -9.79180194      34.90459464 
  C          -11.69733111     -10.57133052      33.76636934 
  C          -13.09442699      -9.23135967      32.04386443 
  C          -11.45914228      -7.40231015      31.11016899 
units = au
no_com
no_reorient
}

set {
  e_convergence 10
  d_convergence 10
  scf_type df
  mp2_type df
  cc_type df
  freeze_core true
}

energy('sapt0/aug-cc-pvdz')

--------------------------------------------------------------------------

  Memory set to   6.519 GiB by Python driver.

Scratch directory: /scratch/csargent/psi4.7158.66302/

Scratch directory: /scratch/csargent/psi4.7158.66302/

  //>>>>>>>>>>>>>>>>>>>>>>>>>>>>>>>>>>>//
  //              Dimer HF             //
  //<<<<<<<<<<<<<<<<<<<<<<<<<<<<<<<<<<<//


*** tstart() called on ds1
*** at Mon Oct  4 13:15:25 2021

   => Loading Basis Set <=

    Name: AUG-CC-PVDZ
    Role: ORBITAL
    Keyword: BASIS
    atoms 1-2, 10-11 entry N          line   218 file /theoryfs2/ds/csargent/miniconda3/envs/cle/share/psi4/basis/aug-cc-pvdz.gbs 
    atoms 3-6, 12-15 entry H          line    40 file /theoryfs2/ds/csargent/miniconda3/envs/cle/share/psi4/basis/aug-cc-pvdz.gbs 
    atoms 7-9, 16-18 entry C          line   182 file /theoryfs2/ds/csargent/miniconda3/envs/cle/share/psi4/basis/aug-cc-pvdz.gbs 


         ---------------------------------------------------------
                                   SCF
               by Justin Turney, Rob Parrish, Andy Simmonett
                          and Daniel G. A. Smith
                              RHF Reference
                        6 Threads,   6675 MiB Core
         ---------------------------------------------------------

  ==> Geometry <==

    Molecular point group: c1
    Full point group: C1

    Geometry (in Bohr), charge = 0, multiplicity = 1:

       Center              X                  Y                   Z               Mass       
    ------------   -----------------  -----------------  -----------------  -----------------
         N            6.279812100000    -4.253033720000     0.193138650000    14.003074004430
         N            6.068707770000    -2.281256970000     1.805443170000    14.003074004430
         H            3.668711560000    -5.646289410000    -1.966840010000     1.007825032230
         H            0.690345210000    -2.375456940000    -0.428642360000     1.007825032230
         H            3.359174420000     0.176506010000     3.092650170000     1.007825032230
         H            7.352667820000    -1.994613110000     2.906807020000     1.007825032230
         C            3.779525860000    -1.215084530000     1.768581720000    12.000000000000
         C            2.382429980000    -2.555055380000     0.046076810000    12.000000000000
         C            4.017714680000    -4.384104900000    -0.887618630000    12.000000000000
         N           -9.197044870000    -7.533381330000    32.190926270000    14.003074004430
         N           -9.408149200000    -9.505158080000    33.803230790000    14.003074004430
         H          -11.808145410000    -6.140125640000    30.030947610000     1.007825032230
         H          -14.786511760000    -9.410958110000    31.569145260000     1.007825032230
         H          -12.117682550000   -11.962921060000    35.090437790000     1.007825032230
         H           -8.124189140000    -9.791801940000    34.904594640000     1.007825032230
         C          -11.697331110000   -10.571330520000    33.766369340000    12.000000000000
         C          -13.094426990000    -9.231359670000    32.043864430000    12.000000000000
         C          -11.459142280000    -7.402310150000    31.110168990000    12.000000000000

  Running in c1 symmetry.

  Rotational constants: A =      0.02310  B =      0.00070  C =      0.00068 [cm^-1]
  Rotational constants: A =    692.64314  B =     20.91603  C =     20.42436 [MHz]
  Nuclear repulsion =  369.140098076986305

  Charge       = 0
  Multiplicity = 1
  Electrons    = 72
  Nalpha       = 36
  Nbeta        = 36

  ==> Algorithm <==

  SCF Algorithm Type is DF.
  DIIS enabled.
  MOM disabled.
  Fractional occupation disabled.
  Guess Type is SAD.
  Energy threshold   = 1.00e-10
  Density threshold  = 1.00e-10
  Integral threshold = 1.00e-12

  ==> Primary Basis <==

  Basis Set: AUG-CC-PVDZ
    Blend: AUG-CC-PVDZ
    Number of shells: 130
    Number of basis functions: 302
    Number of Cartesian functions: 322
    Spherical Harmonics?: true
    Max angular momentum: 2

   => Loading Basis Set <=

    Name: (AUG-CC-PVDZ AUX)
    Role: JKFIT
    Keyword: DF_BASIS_SCF
    atoms 1-2, 10-11 entry N          line   212 file /theoryfs2/ds/csargent/miniconda3/envs/cle/share/psi4/basis/aug-cc-pvdz-jkfit.gbs 
    atoms 3-6, 12-15 entry H          line    70 file /theoryfs2/ds/csargent/miniconda3/envs/cle/share/psi4/basis/aug-cc-pvdz-jkfit.gbs 
    atoms 7-9, 16-18 entry C          line   154 file /theoryfs2/ds/csargent/miniconda3/envs/cle/share/psi4/basis/aug-cc-pvdz-jkfit.gbs 

  ==> Integral Setup <==

  ==> DiskDFJK: Density-Fitted J/K Matrices <==

    J tasked:                  Yes
    K tasked:                  Yes
    wK tasked:                  No
    OpenMP threads:              6
    Integrals threads:           6
    Memory [MiB]:             5006
    Algorithm:                Core
    Integral Cache:           SAVE
    Schwarz Cutoff:          1E-12
    Fitting Condition:       1E-10

   => Auxiliary Basis Set <=

  Basis Set: (AUG-CC-PVDZ AUX)
    Blend: AUG-CC-PVDZ-JKFIT
    Number of shells: 376
    Number of basis functions: 1116
    Number of Cartesian functions: 1290
    Spherical Harmonics?: true
    Max angular momentum: 3

  Minimum eigenvalue in the overlap matrix is 3.0333761622E-05.
  Reciprocal condition number of the overlap matrix is 2.4874847496E-06.
    Using symmetric orthogonalization.

  ==> Pre-Iterations <==

  SCF Guess: Superposition of Atomic Densities via on-the-fly atomic UHF (no occupation information).

   -------------------------
    Irrep   Nso     Nmo    
   -------------------------
     A        302     302 
   -------------------------
    Total     302     302
   -------------------------

  ==> Iterations <==

                           Total Energy        Delta E     RMS |[F,P]|

   @DF-RHF iter SAD:  -449.44389602837020   -4.49444e+02   0.00000e+00 
   @DF-RHF iter   1:  -449.27103684726995    1.72859e-01   2.12793e-03 DIIS
   @DF-RHF iter   2:  -449.47972275113500   -2.08686e-01   9.73564e-04 DIIS
   @DF-RHF iter   3:  -449.52153283538104   -4.18101e-02   2.10210e-04 DIIS
   @DF-RHF iter   4:  -449.52430147526900   -2.76864e-03   8.56533e-05 DIIS
   @DF-RHF iter   5:  -449.52465849392331   -3.57019e-04   1.69646e-05 DIIS
   @DF-RHF iter   6:  -449.52469241307165   -3.39191e-05   7.03033e-06 DIIS
   @DF-RHF iter   7:  -449.52470031910042   -7.90603e-06   3.11237e-06 DIIS
   @DF-RHF iter   8:  -449.52470185001800   -1.53092e-06   1.43883e-06 DIIS
   @DF-RHF iter   9:  -449.52470218740916   -3.37391e-07   4.01405e-07 DIIS
   @DF-RHF iter  10:  -449.52470220516113   -1.77520e-08   1.20729e-07 DIIS
   @DF-RHF iter  11:  -449.52470220653828   -1.37715e-09   2.82227e-08 DIIS
   @DF-RHF iter  12:  -449.52470220663014   -9.18590e-11   8.21270e-09 DIIS
   @DF-RHF iter  13:  -449.52470220663815   -8.01492e-12   3.99858e-09 DIIS
   @DF-RHF iter  14:  -449.52470220664014   -1.98952e-12   1.37668e-09 DIIS
   @DF-RHF iter  15:  -449.52470220664122   -1.08002e-12   5.87036e-10 DIIS
   @DF-RHF iter  16:  -449.52470220664060    6.25278e-13   1.78162e-10 DIIS
   @DF-RHF iter  17:  -449.52470220664060    0.00000e+00   6.35117e-11 DIIS
  Energy and wave function converged.


  ==> Post-Iterations <==

    Orbital Energies [Eh]
    ---------------------

    Doubly Occupied:                                                      

       1A    -15.636599     2A    -15.635588     3A    -15.592705  
       4A    -15.591693     5A    -11.280260     6A    -11.279251  
       7A    -11.238183     8A    -11.237172     9A    -11.210261  
      10A    -11.209259    11A     -1.387302    12A     -1.386291  
      13A     -1.122286    14A     -1.121274    15A     -1.067272  
      16A     -1.066266    17A     -0.873151    18A     -0.872143  
      19A     -0.837445    20A     -0.836437    21A     -0.757659  
      22A     -0.756649    23A     -0.646129    24A     -0.645121  
      25A     -0.621214    26A     -0.620209    27A     -0.609518  
      28A     -0.608508    29A     -0.584295    30A     -0.583285  
      31A     -0.461803    32A     -0.460788    33A     -0.371108  
      34A     -0.370099    35A     -0.346422    36A     -0.345415  

    Virtual:                                                              

      37A      0.030489    38A      0.031528    39A      0.041979  
      40A      0.042942    41A      0.048764    42A      0.049784  
      43A      0.063124    44A      0.064131    45A      0.100680  
      46A      0.101700    47A      0.103624    48A      0.104645  
      49A      0.116755    50A      0.117761    51A      0.125903  
      52A      0.126903    53A      0.132718    54A      0.133732  
      55A      0.138037    56A      0.139004    57A      0.141115  
      58A      0.142132    59A      0.156545    60A      0.157520  
      61A      0.164210    62A      0.165195    63A      0.170698  
      64A      0.171711    65A      0.177997    66A      0.179012  
      67A      0.195686    68A      0.196696    69A      0.204412  
      70A      0.205437    71A      0.205768    72A      0.206784  
      73A      0.239832    74A      0.240846    75A      0.243250  
      76A      0.244259    77A      0.244547    78A      0.245557  
      79A      0.270713    80A      0.271732    81A      0.278737  
      82A      0.279740    83A      0.300527    84A      0.301564  
      85A      0.324790    86A      0.325795    87A      0.351997  
      88A      0.353009    89A      0.354969    90A      0.355965  
      91A      0.374550    92A      0.375566    93A      0.395703  
      94A      0.396722    95A      0.402374    96A      0.403382  
      97A      0.414640    98A      0.415613    99A      0.431759  
     100A      0.432763   101A      0.442953   102A      0.443975  
     103A      0.453001   104A      0.454013   105A      0.459423  
     106A      0.460450   107A      0.478301   108A      0.479307  
     109A      0.498146   110A      0.499161   111A      0.508298  
     112A      0.509306   113A      0.521561   114A      0.522567  
     115A      0.541179   116A      0.542187   117A      0.574064  
     118A      0.575072   119A      0.585947   120A      0.586959  
     121A      0.590171   122A      0.591174   123A      0.602054  
     124A      0.603058   125A      0.620577   126A      0.621580  
     127A      0.645732   128A      0.646741   129A      0.654929  
     130A      0.655926   131A      0.675785   132A      0.676792  
     133A      0.697657   134A      0.698662   135A      0.700015  
     136A      0.701021   137A      0.721284   138A      0.722297  
     139A      0.724752   140A      0.725756   141A      0.747325  
     142A      0.748341   143A      0.758205   144A      0.759211  
     145A      0.772938   146A      0.773939   147A      0.781108  
     148A      0.782119   149A      0.828099   150A      0.829113  
     151A      0.837860   152A      0.838868   153A      0.848010  
     154A      0.849020   155A      0.881017   156A      0.882012  
     157A      0.888404   158A      0.889410   159A      0.906565  
     160A      0.907574   161A      0.924436   162A      0.925445  
     163A      0.942200   164A      0.943207   165A      0.977835  
     166A      0.978843   167A      0.984470   168A      0.985478  
     169A      1.010738   170A      1.011755   171A      1.046211  
     172A      1.047228   173A      1.066129   174A      1.067134  
     175A      1.100479   176A      1.101491   177A      1.127671  
     178A      1.128676   179A      1.133815   180A      1.134826  
     181A      1.149863   182A      1.150873   183A      1.174783  
     184A      1.175786   185A      1.220152   186A      1.221168  
     187A      1.269176   188A      1.270182   189A      1.302952  
     190A      1.303962   191A      1.311011   192A      1.312027  
     193A      1.365419   194A      1.366425   195A      1.400662  
     196A      1.401666   197A      1.474307   198A      1.475315  
     199A      1.511652   200A      1.512663   201A      1.525748  
     202A      1.526757   203A      1.560605   204A      1.561612  
     205A      1.590517   206A      1.591523   207A      1.608289  
     208A      1.609297   209A      1.637063   210A      1.638067  
     211A      1.669100   212A      1.670102   213A      1.703258  
     214A      1.704273   215A      1.723570   216A      1.724580  
     217A      1.748827   218A      1.749835   219A      1.763999  
     220A      1.765005   221A      1.804661   222A      1.805674  
     223A      1.875265   224A      1.876275   225A      1.932008  
     226A      1.933018   227A      1.943187   228A      1.944189  
     229A      1.987676   230A      1.988684   231A      2.021059  
     232A      2.022070   233A      2.057234   234A      2.058240  
     235A      2.088470   236A      2.089477   237A      2.144306  
     238A      2.145317   239A      2.189635   240A      2.190640  
     241A      2.200444   242A      2.201451   243A      2.230080  
     244A      2.231089   245A      2.275437   246A      2.276442  
     247A      2.307267   248A      2.308274   249A      2.360331  
     250A      2.361341   251A      2.388747   252A      2.389760  
     253A      2.393454   254A      2.394467   255A      2.434864  
     256A      2.435876   257A      2.464594   258A      2.465606  
     259A      2.531418   260A      2.532425   261A      2.569849  
     262A      2.570858   263A      2.584342   264A      2.585355  
     265A      2.642585   266A      2.643595   267A      2.732662  
     268A      2.733671   269A      2.826449   270A      2.827459  
     271A      2.834365   272A      2.835374   273A      2.901204  
     274A      2.902218   275A      2.918224   276A      2.919234  
     277A      2.998782   278A      2.999788   279A      3.054946  
     280A      3.055958   281A      3.091969   282A      3.092981  
     283A      3.122351   284A      3.123361   285A      3.188537  
     286A      3.189546   287A      3.221629   288A      3.222634  
     289A      3.297472   290A      3.298483   291A      3.379868  
     292A      3.380872   293A      3.520344   294A      3.521355  
     295A      3.686181   296A      3.687187   297A      3.888944  
     298A      3.889957   299A      4.209036   300A      4.210049  
     301A      4.462857   302A      4.463862  

    Final Occupation by Irrep:
              A 
    DOCC [    36 ]

  @DF-RHF Final Energy:  -449.52470220664060

   => Energetics <=

    Nuclear Repulsion Energy =            369.1400980769863054
    One-Electron Energy =               -1338.7914805913624150
    Two-Electron Energy =                 520.1266803077355689
    Total Energy =                       -449.5247022066405407

Computation Completed


Properties will be evaluated at   0.000000,   0.000000,   0.000000 [a0]

Properties computed using the SCF density matrix

  Nuclear Dipole Moment: [e a0]
     X:  -231.9897      Y:  -424.3109      Z:  1198.2329

  Electronic Dipole Moment: [e a0]
     X:   231.1837      Y:   424.3103      Z: -1197.0715

  Dipole Moment: [e a0]
     X:    -0.8061      Y:    -0.0007      Z:     1.1614     Total:     1.4137

  Dipole Moment: [D]
     X:    -2.0488      Y:    -0.0017      Z:     2.9519     Total:     3.5933


*** tstop() called on ds1 at Mon Oct  4 13:15:29 2021
Module time:
	user time   =      22.48 seconds =       0.37 minutes
	system time =       0.55 seconds =       0.01 minutes
	total time  =          4 seconds =       0.07 minutes
Total time:
	user time   =      22.48 seconds =       0.37 minutes
	system time =       0.55 seconds =       0.01 minutes
	total time  =          4 seconds =       0.07 minutes

  //>>>>>>>>>>>>>>>>>>>>>>>>>>>>>>>>>>>//
  //            Monomer A HF           //
  //<<<<<<<<<<<<<<<<<<<<<<<<<<<<<<<<<<<//


*** tstart() called on ds1
*** at Mon Oct  4 13:15:29 2021

   => Loading Basis Set <=

    Name: AUG-CC-PVDZ
    Role: ORBITAL
    Keyword: BASIS
    atoms 1-2, 10-11 entry N          line   218 file /theoryfs2/ds/csargent/miniconda3/envs/cle/share/psi4/basis/aug-cc-pvdz.gbs 
    atoms 3-6, 12-15 entry H          line    40 file /theoryfs2/ds/csargent/miniconda3/envs/cle/share/psi4/basis/aug-cc-pvdz.gbs 
    atoms 7-9, 16-18 entry C          line   182 file /theoryfs2/ds/csargent/miniconda3/envs/cle/share/psi4/basis/aug-cc-pvdz.gbs 


         ---------------------------------------------------------
                                   SCF
               by Justin Turney, Rob Parrish, Andy Simmonett
                          and Daniel G. A. Smith
                              RHF Reference
                        6 Threads,   6675 MiB Core
         ---------------------------------------------------------

  ==> Geometry <==

    Molecular point group: c1
    Full point group: C1

    Geometry (in Bohr), charge = 0, multiplicity = 1:

       Center              X                  Y                   Z               Mass       
    ------------   -----------------  -----------------  -----------------  -----------------
         N            6.279812100000    -4.253033720000     0.193138650000    14.003074004430
         N            6.068707770000    -2.281256970000     1.805443170000    14.003074004430
         H            3.668711560000    -5.646289410000    -1.966840010000     1.007825032230
         H            0.690345210000    -2.375456940000    -0.428642360000     1.007825032230
         H            3.359174420000     0.176506010000     3.092650170000     1.007825032230
         H            7.352667820000    -1.994613110000     2.906807020000     1.007825032230
         C            3.779525860000    -1.215084530000     1.768581720000    12.000000000000
         C            2.382429980000    -2.555055380000     0.046076810000    12.000000000000
         C            4.017714680000    -4.384104900000    -0.887618630000    12.000000000000
      Gh(N)          -9.197044870000    -7.533381330000    32.190926270000    14.003074004430
      Gh(N)          -9.408149200000    -9.505158080000    33.803230790000    14.003074004430
      Gh(H)         -11.808145410000    -6.140125640000    30.030947610000     1.007825032230
      Gh(H)         -14.786511760000    -9.410958110000    31.569145260000     1.007825032230
      Gh(H)         -12.117682550000   -11.962921060000    35.090437790000     1.007825032230
      Gh(H)          -8.124189140000    -9.791801940000    34.904594640000     1.007825032230
      Gh(C)         -11.697331110000   -10.571330520000    33.766369340000    12.000000000000
      Gh(C)         -13.094426990000    -9.231359670000    32.043864430000    12.000000000000
      Gh(C)         -11.459142280000    -7.402310150000    31.110168990000    12.000000000000

  Running in c1 symmetry.

  Rotational constants: A =      0.02310  B =      0.00070  C =      0.00068 [cm^-1]
  Rotational constants: A =    692.64314  B =     20.91603  C =     20.42436 [MHz]
  Nuclear repulsion =  166.624056450327203

  Charge       = 0
  Multiplicity = 1
  Electrons    = 36
  Nalpha       = 18
  Nbeta        = 18

  ==> Algorithm <==

  SCF Algorithm Type is DF.
  DIIS enabled.
  MOM disabled.
  Fractional occupation disabled.
  Guess Type is SAD.
  Energy threshold   = 1.00e-10
  Density threshold  = 1.00e-10
  Integral threshold = 1.00e-12

  ==> Primary Basis <==

  Basis Set: AUG-CC-PVDZ
    Blend: AUG-CC-PVDZ
    Number of shells: 130
    Number of basis functions: 302
    Number of Cartesian functions: 322
    Spherical Harmonics?: true
    Max angular momentum: 2

   => Loading Basis Set <=

    Name: (AUG-CC-PVDZ AUX)
    Role: JKFIT
    Keyword: DF_BASIS_SCF
    atoms 1-2, 10-11 entry N          line   212 file /theoryfs2/ds/csargent/miniconda3/envs/cle/share/psi4/basis/aug-cc-pvdz-jkfit.gbs 
    atoms 3-6, 12-15 entry H          line    70 file /theoryfs2/ds/csargent/miniconda3/envs/cle/share/psi4/basis/aug-cc-pvdz-jkfit.gbs 
    atoms 7-9, 16-18 entry C          line   154 file /theoryfs2/ds/csargent/miniconda3/envs/cle/share/psi4/basis/aug-cc-pvdz-jkfit.gbs 

  ==> Integral Setup <==

  ==> DiskDFJK: Density-Fitted J/K Matrices <==

    J tasked:                  Yes
    K tasked:                  Yes
    wK tasked:                  No
    OpenMP threads:              6
    Integrals threads:           6
    Memory [MiB]:             5006
    Algorithm:                Core
    Integral Cache:           LOAD
    Schwarz Cutoff:          1E-12
    Fitting Condition:       1E-10

   => Auxiliary Basis Set <=

  Basis Set: (AUG-CC-PVDZ AUX)
    Blend: AUG-CC-PVDZ-JKFIT
    Number of shells: 376
    Number of basis functions: 1116
    Number of Cartesian functions: 1290
    Spherical Harmonics?: true
    Max angular momentum: 3

  Minimum eigenvalue in the overlap matrix is 3.0333761622E-05.
  Reciprocal condition number of the overlap matrix is 2.4874847496E-06.
    Using symmetric orthogonalization.

  ==> Pre-Iterations <==

  SCF Guess: Superposition of Atomic Densities via on-the-fly atomic UHF (no occupation information).

   -------------------------
    Irrep   Nso     Nmo    
   -------------------------
     A        302     302 
   -------------------------
    Total     302     302
   -------------------------

  ==> Iterations <==

                           Total Energy        Delta E     RMS |[F,P]|

   @DF-RHF iter SAD:  -224.72194801352475   -2.24722e+02   0.00000e+00 
   @DF-RHF iter   1:  -224.63549170018067    8.64563e-02   1.50472e-03 DIIS
   @DF-RHF iter   2:  -224.73984613289338   -1.04354e-01   6.88462e-04 DIIS
   @DF-RHF iter   3:  -224.76075487181902   -2.09087e-02   1.48626e-04 DIIS
   @DF-RHF iter   4:  -224.76213931558723   -1.38444e-03   6.05310e-05 DIIS
   @DF-RHF iter   5:  -224.76231767034460   -1.78355e-04   1.19893e-05 DIIS
   @DF-RHF iter   6:  -224.76233462781852   -1.69575e-05   4.96772e-06 DIIS
   @DF-RHF iter   7:  -224.76233858385621   -3.95604e-06   2.18806e-06 DIIS
   @DF-RHF iter   8:  -224.76233934459844   -7.60742e-07   1.01700e-06 DIIS
   @DF-RHF iter   9:  -224.76233951224071   -1.67642e-07   2.83302e-07 DIIS
   @DF-RHF iter  10:  -224.76233952106136   -8.82065e-09   8.55547e-08 DIIS
   @DF-RHF iter  11:  -224.76233952175056   -6.89198e-10   1.99714e-08 DIIS
   @DF-RHF iter  12:  -224.76233952179732   -4.67537e-11   5.81092e-09 DIIS
   @DF-RHF iter  13:  -224.76233952180124   -3.92220e-12   2.83097e-09 DIIS
   @DF-RHF iter  14:  -224.76233952180223   -9.94760e-13   9.75191e-10 DIIS
   @DF-RHF iter  15:  -224.76233952180223    0.00000e+00   4.15548e-10 DIIS
   @DF-RHF iter  16:  -224.76233952180274   -5.11591e-13   1.25998e-10 DIIS
   @DF-RHF iter  17:  -224.76233952180232    4.26326e-13   4.47778e-11 DIIS
  Energy and wave function converged.


  ==> Post-Iterations <==

    Orbital Energies [Eh]
    ---------------------

    Doubly Occupied:                                                      

       1A    -15.636223     2A    -15.592313     3A    -11.279894  
       4A    -11.237784     5A    -11.209891     6A     -1.386922  
       7A     -1.121901     8A     -1.066898     9A     -0.872768  
      10A     -0.837061    11A     -0.757292    12A     -0.645746  
      13A     -0.620834    14A     -0.609140    15A     -0.583920  
      16A     -0.461404    17A     -0.370721    18A     -0.346048  

    Virtual:                                                              

      19A      0.022338    20A      0.030764    21A      0.039650  
      22A      0.042368    23A      0.043818    24A      0.049159  
      25A      0.063520    26A      0.065548    27A      0.083641  
      28A      0.090372    29A      0.098588    30A      0.100998  
      31A      0.104029    32A      0.117179    33A      0.117995  
      34A      0.125484    35A      0.126270    36A      0.127953  
      37A      0.133027    38A      0.133069    39A      0.133807  
      40A      0.138403    41A      0.141490    42A      0.156889  
      43A      0.158180    44A      0.164592    45A      0.165630  
      46A      0.171075    47A      0.178408    48A      0.178869  
      49A      0.195155    50A      0.196042    51A      0.201140  
      52A      0.204793    53A      0.206162    54A      0.222577  
      55A      0.224777    56A      0.227884    57A      0.235232  
      58A      0.240236    59A      0.243626    60A      0.244965  
      61A      0.263672    62A      0.270692    63A      0.271127  
      64A      0.279080    65A      0.301010    66A      0.321545  
      67A      0.325148    68A      0.339777    69A      0.352358  
      70A      0.355357    71A      0.366196    72A      0.372556  
      73A      0.374907    74A      0.383395    75A      0.396061  
      76A      0.402741    77A      0.414998    78A      0.427176  
      79A      0.431731    80A      0.432132    81A      0.440869  
      82A      0.442035    83A      0.443385    84A      0.453393  
      85A      0.455677    86A      0.457088    87A      0.459816  
      88A      0.461556    89A      0.478655    90A      0.498543  
      91A      0.508690    92A      0.509410    93A      0.519110  
      94A      0.521917    95A      0.532825    96A      0.537698  
      97A      0.541560    98A      0.559000    99A      0.568522  
     100A      0.571515   101A      0.574432   102A      0.586318  
     103A      0.590538   104A      0.594848   105A      0.602413  
     106A      0.613039   107A      0.620916   108A      0.620953  
     109A      0.633206   110A      0.646110   111A      0.655295  
     112A      0.676161   113A      0.690509   114A      0.698041  
     115A      0.700391   116A      0.707475   117A      0.719137  
     118A      0.721667   119A      0.725115   120A      0.735370  
     121A      0.745035   122A      0.747709   123A      0.758592  
     124A      0.773318   125A      0.781481   126A      0.789348  
     127A      0.797814   128A      0.814131   129A      0.820598  
     130A      0.828504   131A      0.838230   132A      0.848393  
     133A      0.851640   134A      0.854808   135A      0.870705  
     136A      0.880762   137A      0.881395   138A      0.888767  
     139A      0.895367   140A      0.906950   141A      0.915853  
     142A      0.924815   143A      0.942582   144A      0.951777  
     145A      0.978222   146A      0.984850   147A      0.996878  
     148A      1.011149   149A      1.023885   150A      1.029949  
     151A      1.046606   152A      1.051379   153A      1.066503  
     154A      1.070881   155A      1.080701   156A      1.100852  
     157A      1.107912   158A      1.128058   159A      1.134196  
     160A      1.150235   161A      1.158542   162A      1.166021  
     163A      1.175168   164A      1.184728   165A      1.220548  
     166A      1.221474   167A      1.236800   168A      1.267745  
     169A      1.269556   170A      1.293481   171A      1.303342  
     172A      1.311399   173A      1.314906   174A      1.340444  
     175A      1.365807   176A      1.381591   177A      1.401043  
     178A      1.434763   179A      1.444493   180A      1.474691  
     181A      1.493014   182A      1.506795   183A      1.512027  
     184A      1.526129   185A      1.560989   186A      1.590882  
     187A      1.608669   188A      1.637437   189A      1.669472  
     190A      1.676491   191A      1.688664   192A      1.703634  
     193A      1.723950   194A      1.749215   195A      1.764373  
     196A      1.805048   197A      1.875632   198A      1.932390  
     199A      1.943558   200A      1.988067   201A      2.021445  
     202A      2.040867   203A      2.057611   204A      2.088839  
     205A      2.108900   206A      2.134626   207A      2.144687  
     208A      2.167936   209A      2.190005   210A      2.200827  
     211A      2.216446   212A      2.230457   213A      2.233659  
     214A      2.261663   215A      2.275825   216A      2.277529  
     217A      2.289067   218A      2.307640   219A      2.335511  
     220A      2.360716   221A      2.380342   222A      2.389130  
     223A      2.393822   224A      2.394355   225A      2.435246  
     226A      2.443697   227A      2.464967   228A      2.478123  
     229A      2.499703   230A      2.513417   231A      2.531798  
     232A      2.548640   233A      2.570232   234A      2.584716  
     235A      2.631132   236A      2.642961   237A      2.667333  
     238A      2.702830   239A      2.718696   240A      2.733029  
     241A      2.826838   242A      2.827702   243A      2.834751  
     244A      2.869623   245A      2.889842   246A      2.901587  
     247A      2.918598   248A      2.944939   249A      2.999157  
     250A      3.027871   251A      3.055324   252A      3.089636  
     253A      3.092358   254A      3.122730   255A      3.139838  
     256A      3.181771   257A      3.188930   258A      3.222008  
     259A      3.253935   260A      3.288971   261A      3.297865  
     262A      3.355563   263A      3.380235   264A      3.395388  
     265A      3.423304   266A      3.448085   267A      3.486967  
     268A      3.497323   269A      3.520727   270A      3.633330  
     271A      3.666747   272A      3.686563   273A      3.735417  
     274A      3.769878   275A      3.850974   276A      3.889327  
     277A      3.964210   278A      4.035301   279A      4.094558  
     280A      4.209428   281A      4.243894   282A      4.448224  
     283A      4.463235   284A      4.658197   285A      4.707847  
     286A      4.749748   287A      4.810590   288A      4.994673  
     289A      5.076605   290A      5.241262   291A      5.531043  
     292A      5.668760   293A      5.826670   294A      6.106498  
     295A      6.318140   296A      6.708182   297A      6.967672  
     298A     18.110999   299A     18.647669   300A     19.373423  
     301A     25.245336   302A     25.704760  

    Final Occupation by Irrep:
              A 
    DOCC [    18 ]

  @DF-RHF Final Energy:  -224.76233952180232

   => Energetics <=

    Nuclear Repulsion Energy =            166.6240564503272026
    One-Electron Energy =                -633.4992733857313851
    Two-Electron Energy =                 242.1128774136018649
    Total Energy =                       -224.7623395218023177

Computation Completed


Properties will be evaluated at   0.000000,   0.000000,   0.000000 [a0]

Properties computed using the SCF density matrix

  Nuclear Dipole Moment: [e a0]
     X:   162.5886      Y:  -104.5054      Z:    23.1563

  Electronic Dipole Moment: [e a0]
     X:  -162.9913      Y:   105.1370      Z:   -22.5767

  Dipole Moment: [e a0]
     X:    -0.4027      Y:     0.6317      Z:     0.5796     Total:     0.9472

  Dipole Moment: [D]
     X:    -1.0235      Y:     1.6055      Z:     1.4733     Total:     2.4075


*** tstop() called on ds1 at Mon Oct  4 13:15:33 2021
Module time:
	user time   =      15.60 seconds =       0.26 minutes
	system time =       0.33 seconds =       0.01 minutes
	total time  =          4 seconds =       0.07 minutes
Total time:
	user time   =      38.11 seconds =       0.64 minutes
	system time =       0.88 seconds =       0.01 minutes
	total time  =          8 seconds =       0.13 minutes

  //>>>>>>>>>>>>>>>>>>>>>>>>>>>>>>>>>>>//
  //            Monomer B HF           //
  //<<<<<<<<<<<<<<<<<<<<<<<<<<<<<<<<<<<//


*** tstart() called on ds1
*** at Mon Oct  4 13:15:33 2021

   => Loading Basis Set <=

    Name: AUG-CC-PVDZ
    Role: ORBITAL
    Keyword: BASIS
    atoms 1-2, 10-11 entry N          line   218 file /theoryfs2/ds/csargent/miniconda3/envs/cle/share/psi4/basis/aug-cc-pvdz.gbs 
    atoms 3-6, 12-15 entry H          line    40 file /theoryfs2/ds/csargent/miniconda3/envs/cle/share/psi4/basis/aug-cc-pvdz.gbs 
    atoms 7-9, 16-18 entry C          line   182 file /theoryfs2/ds/csargent/miniconda3/envs/cle/share/psi4/basis/aug-cc-pvdz.gbs 


         ---------------------------------------------------------
                                   SCF
               by Justin Turney, Rob Parrish, Andy Simmonett
                          and Daniel G. A. Smith
                              RHF Reference
                        6 Threads,   6675 MiB Core
         ---------------------------------------------------------

  ==> Geometry <==

    Molecular point group: c1
    Full point group: C1

    Geometry (in Bohr), charge = 0, multiplicity = 1:

       Center              X                  Y                   Z               Mass       
    ------------   -----------------  -----------------  -----------------  -----------------
      Gh(N)           6.279812100000    -4.253033720000     0.193138650000    14.003074004430
      Gh(N)           6.068707770000    -2.281256970000     1.805443170000    14.003074004430
      Gh(H)           3.668711560000    -5.646289410000    -1.966840010000     1.007825032230
      Gh(H)           0.690345210000    -2.375456940000    -0.428642360000     1.007825032230
      Gh(H)           3.359174420000     0.176506010000     3.092650170000     1.007825032230
      Gh(H)           7.352667820000    -1.994613110000     2.906807020000     1.007825032230
      Gh(C)           3.779525860000    -1.215084530000     1.768581720000    12.000000000000
      Gh(C)           2.382429980000    -2.555055380000     0.046076810000    12.000000000000
      Gh(C)           4.017714680000    -4.384104900000    -0.887618630000    12.000000000000
         N           -9.197044870000    -7.533381330000    32.190926270000    14.003074004430
         N           -9.408149200000    -9.505158080000    33.803230790000    14.003074004430
         H          -11.808145410000    -6.140125640000    30.030947610000     1.007825032230
         H          -14.786511760000    -9.410958110000    31.569145260000     1.007825032230
         H          -12.117682550000   -11.962921060000    35.090437790000     1.007825032230
         H           -8.124189140000    -9.791801940000    34.904594640000     1.007825032230
         C          -11.697331110000   -10.571330520000    33.766369340000    12.000000000000
         C          -13.094426990000    -9.231359670000    32.043864430000    12.000000000000
         C          -11.459142280000    -7.402310150000    31.110168990000    12.000000000000

  Running in c1 symmetry.

  Rotational constants: A =      0.02310  B =      0.00070  C =      0.00068 [cm^-1]
  Rotational constants: A =    692.64314  B =     20.91603  C =     20.42436 [MHz]
  Nuclear repulsion =  166.624056457097936

  Charge       = 0
  Multiplicity = 1
  Electrons    = 36
  Nalpha       = 18
  Nbeta        = 18

  ==> Algorithm <==

  SCF Algorithm Type is DF.
  DIIS enabled.
  MOM disabled.
  Fractional occupation disabled.
  Guess Type is SAD.
  Energy threshold   = 1.00e-10
  Density threshold  = 1.00e-10
  Integral threshold = 1.00e-12

  ==> Primary Basis <==

  Basis Set: AUG-CC-PVDZ
    Blend: AUG-CC-PVDZ
    Number of shells: 130
    Number of basis functions: 302
    Number of Cartesian functions: 322
    Spherical Harmonics?: true
    Max angular momentum: 2

   => Loading Basis Set <=

    Name: (AUG-CC-PVDZ AUX)
    Role: JKFIT
    Keyword: DF_BASIS_SCF
    atoms 1-2, 10-11 entry N          line   212 file /theoryfs2/ds/csargent/miniconda3/envs/cle/share/psi4/basis/aug-cc-pvdz-jkfit.gbs 
    atoms 3-6, 12-15 entry H          line    70 file /theoryfs2/ds/csargent/miniconda3/envs/cle/share/psi4/basis/aug-cc-pvdz-jkfit.gbs 
    atoms 7-9, 16-18 entry C          line   154 file /theoryfs2/ds/csargent/miniconda3/envs/cle/share/psi4/basis/aug-cc-pvdz-jkfit.gbs 

  ==> Integral Setup <==

  ==> DiskDFJK: Density-Fitted J/K Matrices <==

    J tasked:                  Yes
    K tasked:                  Yes
    wK tasked:                  No
    OpenMP threads:              6
    Integrals threads:           6
    Memory [MiB]:             5006
    Algorithm:                Core
    Integral Cache:           LOAD
    Schwarz Cutoff:          1E-12
    Fitting Condition:       1E-10

   => Auxiliary Basis Set <=

  Basis Set: (AUG-CC-PVDZ AUX)
    Blend: AUG-CC-PVDZ-JKFIT
    Number of shells: 376
    Number of basis functions: 1116
    Number of Cartesian functions: 1290
    Spherical Harmonics?: true
    Max angular momentum: 3

  Minimum eigenvalue in the overlap matrix is 3.0333761622E-05.
  Reciprocal condition number of the overlap matrix is 2.4874847496E-06.
    Using symmetric orthogonalization.

  ==> Pre-Iterations <==

  SCF Guess: Superposition of Atomic Densities via on-the-fly atomic UHF (no occupation information).

   -------------------------
    Irrep   Nso     Nmo    
   -------------------------
     A        302     302 
   -------------------------
    Total     302     302
   -------------------------

  ==> Iterations <==

                           Total Energy        Delta E     RMS |[F,P]|

   @DF-RHF iter SAD:  -224.72194801443788   -2.24722e+02   0.00000e+00 
   @DF-RHF iter   1:  -224.63549170139811    8.64563e-02   1.50472e-03 DIIS
   @DF-RHF iter   2:  -224.73984613435755   -1.04354e-01   6.88462e-04 DIIS
   @DF-RHF iter   3:  -224.76075487331946   -2.09087e-02   1.48626e-04 DIIS
   @DF-RHF iter   4:  -224.76213931710294   -1.38444e-03   6.05310e-05 DIIS
   @DF-RHF iter   5:  -224.76231767186221   -1.78355e-04   1.19893e-05 DIIS
   @DF-RHF iter   6:  -224.76233462933661   -1.69575e-05   4.96772e-06 DIIS
   @DF-RHF iter   7:  -224.76233858537398   -3.95604e-06   2.18806e-06 DIIS
   @DF-RHF iter   8:  -224.76233934611673   -7.60743e-07   1.01700e-06 DIIS
   @DF-RHF iter   9:  -224.76233951375841   -1.67642e-07   2.83302e-07 DIIS
   @DF-RHF iter  10:  -224.76233952257934   -8.82093e-09   8.55547e-08 DIIS
   @DF-RHF iter  11:  -224.76233952326879   -6.89454e-10   1.99714e-08 DIIS
   @DF-RHF iter  12:  -224.76233952331503   -4.62421e-11   5.81092e-09 DIIS
   @DF-RHF iter  13:  -224.76233952331899   -3.95062e-12   2.83097e-09 DIIS
   @DF-RHF iter  14:  -224.76233952331998   -9.94760e-13   9.75191e-10 DIIS
   @DF-RHF iter  15:  -224.76233952332052   -5.40012e-13   4.15548e-10 DIIS
   @DF-RHF iter  16:  -224.76233952332032    1.98952e-13   1.25998e-10 DIIS
   @DF-RHF iter  17:  -224.76233952332032    0.00000e+00   4.47779e-11 DIIS
  Energy and wave function converged.


  ==> Post-Iterations <==

    Orbital Energies [Eh]
    ---------------------

    Doubly Occupied:                                                      

       1A    -15.636223     2A    -15.592313     3A    -11.279894  
       4A    -11.237784     5A    -11.209891     6A     -1.386922  
       7A     -1.121901     8A     -1.066898     9A     -0.872768  
      10A     -0.837061    11A     -0.757292    12A     -0.645746  
      13A     -0.620834    14A     -0.609140    15A     -0.583920  
      16A     -0.461404    17A     -0.370721    18A     -0.346048  

    Virtual:                                                              

      19A      0.023345    20A      0.030764    21A      0.040694  
      22A      0.042368    23A      0.044788    24A      0.049159  
      25A      0.063520    26A      0.066550    27A      0.084646  
      28A      0.091386    29A      0.099607    30A      0.100998  
      31A      0.104029    32A      0.117179    33A      0.118989  
      34A      0.126270    35A      0.126500    36A      0.128935  
      37A      0.133069    38A      0.134021    39A      0.134818  
      40A      0.138403    41A      0.141490    42A      0.156889  
      43A      0.159166    44A      0.164592    45A      0.166622  
      46A      0.171075    47A      0.178408    48A      0.179852  
      49A      0.196042    50A      0.196175    51A      0.202183  
      52A      0.204793    53A      0.206162    54A      0.223605  
      55A      0.225788    56A      0.228891    57A      0.236234  
      58A      0.240236    59A      0.243626    60A      0.244965  
      61A      0.264685    62A      0.271127    63A      0.271695  
      64A      0.279080    65A      0.301010    66A      0.322562  
      67A      0.325148    68A      0.340782    69A      0.352358  
      70A      0.355357    71A      0.367212    72A      0.373557  
      73A      0.374907    74A      0.384403    75A      0.396061  
      76A      0.402741    77A      0.414998    78A      0.428172  
      79A      0.432132    80A      0.432751    81A      0.441861  
      82A      0.443017    83A      0.443385    84A      0.453393  
      85A      0.456694    86A      0.458095    87A      0.459816  
      88A      0.462564    89A      0.478655    90A      0.498543  
      91A      0.508690    92A      0.510424    93A      0.520118  
      94A      0.521917    95A      0.533844    96A      0.538705  
      97A      0.541560    98A      0.559998    99A      0.569536  
     100A      0.572516   101A      0.574432   102A      0.586318  
     103A      0.590538   104A      0.595855   105A      0.602413  
     106A      0.614026   107A      0.620953   108A      0.621926  
     109A      0.634209   110A      0.646110   111A      0.655295  
     112A      0.676162   113A      0.691529   114A      0.698041  
     115A      0.700391   116A      0.708481   117A      0.720139  
     118A      0.721667   119A      0.725115   120A      0.736377  
     121A      0.746036   122A      0.747709   123A      0.758592  
     124A      0.773318   125A      0.781481   126A      0.790361  
     127A      0.798826   128A      0.815130   129A      0.821600  
     130A      0.828504   131A      0.838230   132A      0.848394  
     133A      0.852631   134A      0.855815   135A      0.871705  
     136A      0.881395   137A      0.881769   138A      0.888767  
     139A      0.896385   140A      0.906950   141A      0.916850  
     142A      0.924815   143A      0.942582   144A      0.952792  
     145A      0.978222   146A      0.984850   147A      0.997886  
     148A      1.011149   149A      1.024891   150A      1.030961  
     151A      1.046606   152A      1.052388   153A      1.066503  
     154A      1.071874   155A      1.081696   156A      1.100852  
     157A      1.108927   158A      1.128058   159A      1.134196  
     160A      1.150235   161A      1.159552   162A      1.167032  
     163A      1.175168   164A      1.185728   165A      1.220548  
     166A      1.222493   167A      1.237809   168A      1.268755  
     169A      1.269556   170A      1.294501   171A      1.303342  
     172A      1.311399   173A      1.315911   174A      1.341456  
     175A      1.365807   176A      1.382599   177A      1.401043  
     178A      1.435776   179A      1.445508   180A      1.474691  
     181A      1.494022   182A      1.507809   183A      1.512027  
     184A      1.526129   185A      1.560989   186A      1.590882  
     187A      1.608669   188A      1.637437   189A      1.669472  
     190A      1.677505   191A      1.689684   192A      1.703634  
     193A      1.723950   194A      1.749215   195A      1.764373  
     196A      1.805048   197A      1.875632   198A      1.932390  
     199A      1.943558   200A      1.988067   201A      2.021445  
     202A      2.041863   203A      2.057611   204A      2.088839  
     205A      2.109907   206A      2.135633   207A      2.144687  
     208A      2.168921   209A      2.190005   210A      2.200827  
     211A      2.217449   212A      2.230457   213A      2.234654  
     214A      2.262665   215A      2.275825   216A      2.278533  
     217A      2.290069   218A      2.307640   219A      2.336521  
     220A      2.360716   221A      2.381349   222A      2.389130  
     223A      2.393822   224A      2.395356   225A      2.435246  
     226A      2.444696   227A      2.464967   228A      2.479125  
     229A      2.500695   230A      2.514434   231A      2.531798  
     232A      2.549632   233A      2.570232   234A      2.584716  
     235A      2.632140   236A      2.642961   237A      2.668340  
     238A      2.703841   239A      2.719704   240A      2.733029  
     241A      2.826838   242A      2.828709   243A      2.834751  
     244A      2.870633   245A      2.890844   246A      2.901587  
     247A      2.918598   248A      2.945947   249A      2.999157  
     250A      3.028880   251A      3.055324   252A      3.090644  
     253A      3.092358   254A      3.122730   255A      3.140838  
     256A      3.182778   257A      3.188930   258A      3.222008  
     259A      3.254947   260A      3.289987   261A      3.297865  
     262A      3.356575   263A      3.380235   264A      3.396400  
     265A      3.424317   266A      3.449094   267A      3.487973  
     268A      3.498323   269A      3.520727   270A      3.634348  
     271A      3.667757   272A      3.686563   273A      3.736422  
     274A      3.770895   275A      3.851989   276A      3.889327  
     277A      3.965211   278A      4.036321   279A      4.095571  
     280A      4.209428   281A      4.244903   282A      4.449236  
     283A      4.463235   284A      4.659217   285A      4.708863  
     286A      4.750751   287A      4.811600   288A      4.995682  
     289A      5.077618   290A      5.242273   291A      5.532056  
     292A      5.669776   293A      5.827683   294A      6.107512  
     295A      6.319132   296A      6.709187   297A      6.968687  
     298A     18.111996   299A     18.648675   300A     19.374420  
     301A     25.246357   302A     25.705778  

    Final Occupation by Irrep:
              A 
    DOCC [    18 ]

  @DF-RHF Final Energy:  -224.76233952332032

   => Energetics <=

    Nuclear Repulsion Energy =            166.6240564570979359
    One-Electron Energy =                -633.4992734114089217
    Two-Electron Energy =                 242.1128774309906646
    Total Energy =                       -224.7623395233203212

Computation Completed


Properties will be evaluated at   0.000000,   0.000000,   0.000000 [a0]

Properties computed using the SCF density matrix

  Nuclear Dipole Moment: [e a0]
     X:  -394.5783      Y:  -319.8056      Z:  1175.0766

  Electronic Dipole Moment: [e a0]
     X:   394.1756      Y:   319.1739      Z: -1174.4970

  Dipole Moment: [e a0]
     X:    -0.4027      Y:    -0.6317      Z:     0.5796     Total:     0.9472

  Dipole Moment: [D]
     X:    -1.0235      Y:    -1.6055      Z:     1.4733     Total:     2.4075


*** tstop() called on ds1 at Mon Oct  4 13:15:36 2021
Module time:
	user time   =      15.82 seconds =       0.26 minutes
	system time =       0.30 seconds =       0.01 minutes
	total time  =          3 seconds =       0.05 minutes
Total time:
	user time   =      54.03 seconds =       0.90 minutes
	system time =       1.19 seconds =       0.02 minutes
	total time  =         11 seconds =       0.18 minutes
  Constructing Basis Sets for SAPT...

   => Loading Basis Set <=

    Name: (AUG-CC-PVDZ AUX)
    Role: RIFIT
    Keyword: DF_BASIS_SAPT
    atoms 1-2, 10-11 entry N          line   158 file /theoryfs2/ds/csargent/miniconda3/envs/cle/share/psi4/basis/aug-cc-pvdz-ri.gbs 
    atoms 3-6, 12-15 entry H          line    30 file /theoryfs2/ds/csargent/miniconda3/envs/cle/share/psi4/basis/aug-cc-pvdz-ri.gbs 
    atoms 7-9, 16-18 entry C          line   112 file /theoryfs2/ds/csargent/miniconda3/envs/cle/share/psi4/basis/aug-cc-pvdz-ri.gbs 


  //>>>>>>>>>>>>>>>>>>>>>>>>>>>>>>>>>>>//
  //               SAPT0               //
  //<<<<<<<<<<<<<<<<<<<<<<<<<<<<<<<<<<<//


*** tstart() called on ds1
*** at Mon Oct  4 13:15:36 2021

        SAPT0  
    Ed Hohenstein
     6 June 2009

      Orbital Information
  --------------------------
    NSO        =       302
    NMO        =       302
    NRI        =       904
    NOCC A     =        18
    NOCC B     =        18
    FOCC A     =         5
    FOCC B     =         5
    NVIR A     =       284
    NVIR B     =       284

    Elst10,r            =    -0.000023187915 [Eh]
    Exch10              =     0.000000000000 [Eh]
    Exch10 (S^2)        =     0.000000000000 [Eh]

    Iter     Energy [mEh]          dE [mEh]         Residual      Time [s]
       1      -0.00002784       0.000027843       0.052859994             1
       2      -0.00002560      -0.000002246       0.013307854             1
       3      -0.00002758       0.000001981       0.006353373             1
       4      -0.00002820       0.000000622       0.001480861             1
       5      -0.00002812      -0.000000084       0.000993561             1
       6      -0.00002808      -0.000000038       0.000317444             1
       7      -0.00002809       0.000000011       0.000148964             1
       8      -0.00002809       0.000000004       0.000050905             1
       9      -0.00002809      -0.000000000       0.000011860             2
      10      -0.00002809      -0.000000000       0.000002698             2
      11      -0.00002809       0.000000000       0.000000963             2

    CHF Iterations converged


    Iter     Energy [mEh]          dE [mEh]         Residual      Time [s]
       1      -0.00001723       0.000017227       0.046224598             0
       2      -0.00001579      -0.000001438       0.010870780             0
       3      -0.00001752       0.000001729       0.003966720             0
       4      -0.00001766       0.000000142       0.001394158             0
       5      -0.00001761      -0.000000052       0.000779940             0
       6      -0.00001760      -0.000000013       0.000325685             1
       7      -0.00001760       0.000000004       0.000113361             1
       8      -0.00001760       0.000000004       0.000028463             1
       9      -0.00001760      -0.000000000       0.000009695             1
      10      -0.00001760      -0.000000000       0.000001798             1
      11      -0.00001760       0.000000000       0.000000527             1

    CHF Iterations converged

    Ind20,r (A<-B)      =    -0.000000028092 [Eh]
    Ind20,r (B<-A)      =    -0.000000017602 [Eh]
    Ind20,r             =    -0.000000045694 [Eh]
    Exch-Ind20,r (A<-B) =     0.000000000000 [Eh]
    Exch-Ind20,r (B<-A) =     0.000000000000 [Eh]
    Exch-Ind20,r        =     0.000000000000 [Eh]
    Disp20              =    -0.000000494765 [Eh]
    Disp20 (SS)         =    -0.000000247383 [Eh]
    Disp20 (OS)         =    -0.000000247383 [Eh]
    Exch-Disp20         =     0.000000000000 [Eh]
    Exch-Disp20 (SS)    =     0.000000000000 [Eh]
    Exch-Disp20 (OS)    =     0.000000000000 [Eh]

    SAPT Results 
  --------------------------------------------------------------------------------------------------------
    Electrostatics                 -0.02318791 [mEh]      -0.01455064 [kcal/mol]      -0.06087986 [kJ/mol]
      Elst10,r                     -0.02318791 [mEh]      -0.01455064 [kcal/mol]      -0.06087986 [kJ/mol]

    Exchange                        0.00000000 [mEh]       0.00000000 [kcal/mol]       0.00000000 [kJ/mol]
      Exch10                        0.00000000 [mEh]       0.00000000 [kcal/mol]       0.00000000 [kJ/mol]
      Exch10(S^2)                   0.00000000 [mEh]       0.00000000 [kcal/mol]       0.00000000 [kJ/mol]

    Induction                       0.00002640 [mEh]       0.00001656 [kcal/mol]       0.00006930 [kJ/mol]
      Ind20,r                      -0.00004569 [mEh]      -0.00002867 [kcal/mol]      -0.00011997 [kJ/mol]
      Exch-Ind20,r                  0.00000000 [mEh]       0.00000000 [kcal/mol]       0.00000000 [kJ/mol]
      delta HF,r (2)                0.00007209 [mEh]       0.00004524 [kcal/mol]       0.00018928 [kJ/mol]

    Dispersion                     -0.00049477 [mEh]      -0.00031047 [kcal/mol]      -0.00129901 [kJ/mol]
      Disp20                       -0.00049477 [mEh]      -0.00031047 [kcal/mol]      -0.00129901 [kJ/mol]
      Exch-Disp20                   0.00000000 [mEh]       0.00000000 [kcal/mol]       0.00000000 [kJ/mol]
      Disp20 (SS)                  -0.00024738 [mEh]      -0.00015523 [kcal/mol]      -0.00064950 [kJ/mol]
      Disp20 (OS)                  -0.00024738 [mEh]      -0.00015523 [kcal/mol]      -0.00064950 [kJ/mol]
      Exch-Disp20 (SS)              0.00000000 [mEh]       0.00000000 [kcal/mol]       0.00000000 [kJ/mol]
      Exch-Disp20 (OS)              0.00000000 [mEh]       0.00000000 [kcal/mol]       0.00000000 [kJ/mol]

  Total HF                         -0.02316152 [mEh]      -0.01453407 [kcal/mol]      -0.06081056 [kJ/mol]
  Total SAPT0                      -0.02365628 [mEh]      -0.01484454 [kcal/mol]      -0.06210956 [kJ/mol]

  Special recipe for scaled SAPT0 (see Manual):
    Electrostatics sSAPT0          -0.02318791 [mEh]      -0.01455064 [kcal/mol]      -0.06087986 [kJ/mol]
    Exchange sSAPT0                 0.00000000 [mEh]       0.00000000 [kcal/mol]       0.00000000 [kJ/mol]
    Induction sSAPT0                0.00002640 [mEh]       0.00001656 [kcal/mol]       0.00006930 [kJ/mol]
    Dispersion sSAPT0              -0.00049477 [mEh]      -0.00031047 [kcal/mol]      -0.00129901 [kJ/mol]
  Total sSAPT0                     -0.02365628 [mEh]      -0.01484454 [kcal/mol]      -0.06210956 [kJ/mol]
  --------------------------------------------------------------------------------------------------------

*** tstop() called on ds1 at Mon Oct  4 13:15:46 2021
Module time:
	user time   =      43.74 seconds =       0.73 minutes
	system time =       3.79 seconds =       0.06 minutes
	total time  =         10 seconds =       0.17 minutes
Total time:
	user time   =      98.80 seconds =       1.65 minutes
	system time =       5.01 seconds =       0.08 minutes
	total time  =         21 seconds =       0.35 minutes


Warning! sapt0 does not have an associated derived wavefunction.The returned wavefunction is the dimer SCF wavefunction.


    Psi4 stopped on: Monday, 04 October 2021 01:15PM
    Psi4 wall time for execution: 0:00:21.22

*** Psi4 exiting successfully. Buy a developer a beer!
