
    -----------------------------------------------------------------------
          Psi4: An Open-Source Ab Initio Electronic Structure Package
                               Psi4 1.4rc3 

                         Git: Rev {HEAD} 080dba6 


    D. G. A. Smith, L. A. Burns, A. C. Simmonett, R. M. Parrish,
    M. C. Schieber, R. Galvelis, P. Kraus, H. Kruse, R. Di Remigio,
    A. Alenaizan, A. M. James, S. Lehtola, J. P. Misiewicz, M. Scheurer,
    R. A. Shaw, J. B. Schriber, Y. Xie, Z. L. Glick, D. A. Sirianni,
    J. S. O'Brien, J. M. Waldrop, A. Kumar, E. G. Hohenstein,
    B. P. Pritchard, B. R. Brooks, H. F. Schaefer III, A. Yu. Sokolov,
    K. Patkowski, A. E. DePrince III, U. Bozkaya, R. A. King,
    F. A. Evangelista, J. M. Turney, T. D. Crawford, C. D. Sherrill,
    J. Chem. Phys. 152(18) 184108 (2020). https://doi.org/10.1063/5.0006002

                            Additional Code Authors
    E. T. Seidl, C. L. Janssen, E. F. Valeev, M. L. Leininger,
    J. F. Gonthier, R. M. Richard, H. R. McAlexander, M. Saitow, X. Wang,
    P. Verma, and M. H. Lechner

             Previous Authors, Complete List of Code Contributors,
                       and Citations for Specific Modules
    https://github.com/psi4/psi4/blob/master/codemeta.json
    https://github.com/psi4/psi4/graphs/contributors
    http://psicode.org/psi4manual/master/introduction.html#citing-psifour

    -----------------------------------------------------------------------


    Psi4 started on: Monday, 04 October 2021 02:44PM

    Process ID: 11199
    Host:       ds1
    PSIDATADIR: /theoryfs2/ds/csargent/miniconda3/envs/cle/share/psi4
    Memory:     500.0 MiB
    Threads:    6
    
  ==> Input File <==

--------------------------------------------------------------------------
# PSI4 file produced by CrystaLattE

# Generated from:               pyrazole.xyz
# Psithon input for N-mer:      2mer-0+496
# Number of atoms per monomer:  [9, 9]
# Number of replicas:           1
# COM priority:                 1.595122525514e-05
# Minimum COM separations:      21.022 
# Separation priority:          2.310077808399e-05
# Minimum monomer separations:  18.581 
# Cutoff priority:              6.579135194810e-07
# Nuclear repulsion energy:     365.85971654192883

memory 7 GB

molecule Dimer_0_496 {
  N            6.27981210      -4.25303372       0.19313865 
  N            6.06870777      -2.28125697       1.80544317 
  H            3.66871156      -5.64628941      -1.96684001 
  H            0.69034521      -2.37545694      -0.42864236 
  H            3.35917442       0.17650601       3.09265017 
  H            7.35266782      -1.99461311       2.90680702 
  C            3.77952586      -1.21508453       1.76858172 
  C            2.38242998      -2.55505538       0.04607681 
  C            4.01771468      -4.38410490      -0.88761863 
--
  N           10.53656684      21.49448368      30.45600622 
  N           10.65542910      19.45657665      31.99317994 
  H           13.20972957      23.89539365      29.73797587 
  H           16.10436613      21.45285491      32.49311337 
  H           13.16794206      17.73980589      34.39774968 
  H            9.19302089      18.64659959      32.37894527 
  C           12.93826550      19.12640098      33.02222879 
  C           14.42125794      21.05607319      32.13230632 
  C           12.85995261      22.44124101      30.54060837 
units = au
no_com
no_reorient
}

set {
  e_convergence 10
  d_convergence 10
  scf_type df
  mp2_type df
  cc_type df
  freeze_core true
}

energy('sapt0/aug-cc-pvdz')

--------------------------------------------------------------------------

  Memory set to   6.519 GiB by Python driver.

Scratch directory: /scratch/csargent/psi4.7158.66302/

Scratch directory: /scratch/csargent/psi4.7158.66302/

  //>>>>>>>>>>>>>>>>>>>>>>>>>>>>>>>>>>>//
  //              Dimer HF             //
  //<<<<<<<<<<<<<<<<<<<<<<<<<<<<<<<<<<<//


*** tstart() called on ds1
*** at Mon Oct  4 14:44:59 2021

   => Loading Basis Set <=

    Name: AUG-CC-PVDZ
    Role: ORBITAL
    Keyword: BASIS
    atoms 1-2, 10-11 entry N          line   218 file /theoryfs2/ds/csargent/miniconda3/envs/cle/share/psi4/basis/aug-cc-pvdz.gbs 
    atoms 3-6, 12-15 entry H          line    40 file /theoryfs2/ds/csargent/miniconda3/envs/cle/share/psi4/basis/aug-cc-pvdz.gbs 
    atoms 7-9, 16-18 entry C          line   182 file /theoryfs2/ds/csargent/miniconda3/envs/cle/share/psi4/basis/aug-cc-pvdz.gbs 


         ---------------------------------------------------------
                                   SCF
               by Justin Turney, Rob Parrish, Andy Simmonett
                          and Daniel G. A. Smith
                              RHF Reference
                        6 Threads,   6675 MiB Core
         ---------------------------------------------------------

  ==> Geometry <==

    Molecular point group: c1
    Full point group: C1

    Geometry (in Bohr), charge = 0, multiplicity = 1:

       Center              X                  Y                   Z               Mass       
    ------------   -----------------  -----------------  -----------------  -----------------
         N            6.279812100000    -4.253033720000     0.193138650000    14.003074004430
         N            6.068707770000    -2.281256970000     1.805443170000    14.003074004430
         H            3.668711560000    -5.646289410000    -1.966840010000     1.007825032230
         H            0.690345210000    -2.375456940000    -0.428642360000     1.007825032230
         H            3.359174420000     0.176506010000     3.092650170000     1.007825032230
         H            7.352667820000    -1.994613110000     2.906807020000     1.007825032230
         C            3.779525860000    -1.215084530000     1.768581720000    12.000000000000
         C            2.382429980000    -2.555055380000     0.046076810000    12.000000000000
         C            4.017714680000    -4.384104900000    -0.887618630000    12.000000000000
         N           10.536566840000    21.494483680000    30.456006220000    14.003074004430
         N           10.655429100000    19.456576650000    31.993179940000    14.003074004430
         H           13.209729570000    23.895393650000    29.737975870000     1.007825032230
         H           16.104366130000    21.452854910000    32.493113370000     1.007825032230
         H           13.167942060000    17.739805890000    34.397749680000     1.007825032230
         H            9.193020890000    18.646599590000    32.378945270000     1.007825032230
         C           12.938265500000    19.126400980000    33.022228790000    12.000000000000
         C           14.421257940000    21.056073190000    32.132306320000    12.000000000000
         C           12.859952610000    22.441241010000    30.540608370000    12.000000000000

  Running in c1 symmetry.

  Rotational constants: A =      0.02396  B =      0.00056  C =      0.00055 [cm^-1]
  Rotational constants: A =    718.25163  B =     16.73915  C =     16.41180 [MHz]
  Nuclear repulsion =  365.859716545180049

  Charge       = 0
  Multiplicity = 1
  Electrons    = 72
  Nalpha       = 36
  Nbeta        = 36

  ==> Algorithm <==

  SCF Algorithm Type is DF.
  DIIS enabled.
  MOM disabled.
  Fractional occupation disabled.
  Guess Type is SAD.
  Energy threshold   = 1.00e-10
  Density threshold  = 1.00e-10
  Integral threshold = 1.00e-12

  ==> Primary Basis <==

  Basis Set: AUG-CC-PVDZ
    Blend: AUG-CC-PVDZ
    Number of shells: 130
    Number of basis functions: 302
    Number of Cartesian functions: 322
    Spherical Harmonics?: true
    Max angular momentum: 2

   => Loading Basis Set <=

    Name: (AUG-CC-PVDZ AUX)
    Role: JKFIT
    Keyword: DF_BASIS_SCF
    atoms 1-2, 10-11 entry N          line   212 file /theoryfs2/ds/csargent/miniconda3/envs/cle/share/psi4/basis/aug-cc-pvdz-jkfit.gbs 
    atoms 3-6, 12-15 entry H          line    70 file /theoryfs2/ds/csargent/miniconda3/envs/cle/share/psi4/basis/aug-cc-pvdz-jkfit.gbs 
    atoms 7-9, 16-18 entry C          line   154 file /theoryfs2/ds/csargent/miniconda3/envs/cle/share/psi4/basis/aug-cc-pvdz-jkfit.gbs 

  ==> Integral Setup <==

  ==> DiskDFJK: Density-Fitted J/K Matrices <==

    J tasked:                  Yes
    K tasked:                  Yes
    wK tasked:                  No
    OpenMP threads:              6
    Integrals threads:           6
    Memory [MiB]:             5006
    Algorithm:                Core
    Integral Cache:           SAVE
    Schwarz Cutoff:          1E-12
    Fitting Condition:       1E-10

   => Auxiliary Basis Set <=

  Basis Set: (AUG-CC-PVDZ AUX)
    Blend: AUG-CC-PVDZ-JKFIT
    Number of shells: 376
    Number of basis functions: 1116
    Number of Cartesian functions: 1290
    Spherical Harmonics?: true
    Max angular momentum: 3

  Minimum eigenvalue in the overlap matrix is 3.0324469284E-05.
  Reciprocal condition number of the overlap matrix is 2.4867199357E-06.
    Using symmetric orthogonalization.

  ==> Pre-Iterations <==

  SCF Guess: Superposition of Atomic Densities via on-the-fly atomic UHF (no occupation information).

   -------------------------
    Irrep   Nso     Nmo    
   -------------------------
     A        302     302 
   -------------------------
    Total     302     302
   -------------------------

  ==> Iterations <==

                           Total Energy        Delta E     RMS |[F,P]|

   @DF-RHF iter SAD:  -449.44445655922243   -4.49444e+02   0.00000e+00 
   @DF-RHF iter   1:  -449.27107350425825    1.73383e-01   2.12813e-03 DIIS
   @DF-RHF iter   2:  -449.47979095554831   -2.08717e-01   9.73781e-04 DIIS
   @DF-RHF iter   3:  -449.52162067993089   -4.18297e-02   2.10220e-04 DIIS
   @DF-RHF iter   4:  -449.52438981078825   -2.76913e-03   8.56292e-05 DIIS
   @DF-RHF iter   5:  -449.52474669212228   -3.56881e-04   1.69513e-05 DIIS
   @DF-RHF iter   6:  -449.52478058777911   -3.38957e-05   7.02267e-06 DIIS
   @DF-RHF iter   7:  -449.52478849332670   -7.90555e-06   3.09239e-06 DIIS
   @DF-RHF iter   8:  -449.52479001359228   -1.52027e-06   1.43761e-06 DIIS
   @DF-RHF iter   9:  -449.52479034858601   -3.34994e-07   4.00369e-07 DIIS
   @DF-RHF iter  10:  -449.52479036620014   -1.76141e-08   1.20961e-07 DIIS
   @DF-RHF iter  11:  -449.52479036757717   -1.37703e-09   2.82080e-08 DIIS
   @DF-RHF iter  12:  -449.52479036766925   -9.20863e-11   8.19912e-09 DIIS
   @DF-RHF iter  13:  -449.52479036767778   -8.52651e-12   3.99195e-09 DIIS
   @DF-RHF iter  14:  -449.52479036767943   -1.64846e-12   1.37385e-09 DIIS
   @DF-RHF iter  15:  -449.52479036767966   -2.27374e-13   5.85999e-10 DIIS
   @DF-RHF iter  16:  -449.52479036768000   -3.41061e-13   1.78558e-10 DIIS
   @DF-RHF iter  17:  -449.52479036768023   -2.27374e-13   6.40087e-11 DIIS
  Energy and wave function converged.


  ==> Post-Iterations <==

    Orbital Energies [Eh]
    ---------------------

    Doubly Occupied:                                                      

       1A    -15.636806     2A    -15.635992     3A    -15.592864  
       4A    -15.592090     5A    -11.280464     6A    -11.279656  
       7A    -11.238327     8A    -11.237566     9A    -11.210438  
      10A    -11.209658    11A     -1.387575    12A     -1.386693  
      13A     -1.122466    14A     -1.121675    15A     -1.067490  
      16A     -1.066667    17A     -0.873326    18A     -0.872541  
      19A     -0.837601    20A     -0.836834    21A     -0.757831  
      22A     -0.757053    23A     -0.646311    24A     -0.645520  
      25A     -0.621387    26A     -0.620606    27A     -0.609752  
      28A     -0.608910    29A     -0.584464    30A     -0.583685  
      31A     -0.461992    32A     -0.461185    33A     -0.371286  
      34A     -0.370497    35A     -0.346620    36A     -0.345816  

    Virtual:                                                              

      37A      0.030228    38A      0.031077    39A      0.041889  
      40A      0.042583    41A      0.048605    42A      0.049389  
      43A      0.062998    44A      0.063758    45A      0.100441  
      46A      0.101268    47A      0.103455    48A      0.104255  
      49A      0.116632    50A      0.117376    51A      0.125683  
      52A      0.126505    53A      0.132542    54A      0.133330  
      55A      0.137866    56A      0.138635    57A      0.140998  
      58A      0.141734    59A      0.156387    60A      0.157134  
      61A      0.164087    62A      0.164829    63A      0.170502  
      64A      0.171307    65A      0.177862    66A      0.178630  
      67A      0.195440    68A      0.196292    69A      0.204218  
      70A      0.205014    71A      0.205574    72A      0.206381  
      73A      0.239677    74A      0.240453    75A      0.243045  
      76A      0.243861    77A      0.244382    78A      0.245174  
      79A      0.270554    80A      0.271335    81A      0.278503  
      82A      0.279347    83A      0.300440    84A      0.301197  
      85A      0.324560    86A      0.325394    87A      0.351795  
      88A      0.352605    89A      0.354812    90A      0.355583  
      91A      0.374362    92A      0.375147    93A      0.395520  
      94A      0.396322    95A      0.402184    96A      0.402983  
      97A      0.414488    98A      0.415229    99A      0.431561  
     100A      0.432361   101A      0.442811   102A      0.443593  
     103A      0.452842   104A      0.453619   105A      0.459271  
     106A      0.460045   107A      0.478084   108A      0.478890  
     109A      0.497987   110A      0.498764   111A      0.508138  
     112A      0.508914   113A      0.521403   114A      0.522166  
     115A      0.541014   116A      0.541790   117A      0.573861  
     118A      0.574668   119A      0.585764   120A      0.586550  
     121A      0.589995   122A      0.590776   123A      0.601871  
     124A      0.602657   125A      0.620419   126A      0.621187  
     127A      0.645556   128A      0.646344   129A      0.654765  
     130A      0.655536   131A      0.675612   132A      0.676390  
     133A      0.697485   134A      0.698273   135A      0.699825  
     136A      0.700622   137A      0.721087   138A      0.721903  
     139A      0.724570   140A      0.725353   141A      0.747157  
     142A      0.747938   143A      0.758085   144A      0.758820  
     145A      0.772735   146A      0.773542   147A      0.780899  
     148A      0.781711   149A      0.827940   150A      0.828721  
     151A      0.837678   152A      0.838463   153A      0.847830  
     154A      0.848631   155A      0.880838   156A      0.881629  
     157A      0.888207   158A      0.889006   159A      0.906387  
     160A      0.907177   161A      0.924230   162A      0.925045  
     163A      0.942028   164A      0.942809   165A      0.977648  
     166A      0.978442   167A      0.984290   168A      0.985080  
     169A      1.010585   170A      1.011362   171A      1.046042  
     172A      1.046830   173A      1.065944   174A      1.066741  
     175A      1.100278   176A      1.101087   177A      1.127538  
     178A      1.128282   179A      1.133584   180A      1.134426  
     181A      1.149686   182A      1.150467   183A      1.174606  
     184A      1.175393   185A      1.219968   186A      1.220771  
     187A      1.269008   188A      1.269785   189A      1.302816  
     190A      1.303567   191A      1.310860   192A      1.311624  
     193A      1.365228   194A      1.366029   195A      1.400483  
     196A      1.401273   197A      1.474124   198A      1.474918  
     199A      1.511448   200A      1.512256   201A      1.525577  
     202A      1.526361   203A      1.560412   204A      1.561218  
     205A      1.590336   206A      1.591121   207A      1.608120  
     208A      1.608898   209A      1.636886   210A      1.637666  
     211A      1.668937   212A      1.669704   213A      1.703075  
     214A      1.703867   215A      1.723390   216A      1.724178  
     217A      1.748683   218A      1.749440   219A      1.763801  
     220A      1.764605   221A      1.804460   222A      1.805275  
     223A      1.875032   224A      1.875871   225A      1.931841  
     226A      1.932619   227A      1.943011   228A      1.943790  
     229A      1.987580   230A      1.988291   231A      2.020887  
     232A      2.021672   233A      2.057100   234A      2.057841  
     235A      2.088246   236A      2.089075   237A      2.144143  
     238A      2.144916   239A      2.189439   240A      2.190241  
     241A      2.200268   242A      2.201055   243A      2.229887  
     244A      2.230686   245A      2.275275   246A      2.276049  
     247A      2.307070   248A      2.307872   249A      2.360085  
     250A      2.360944   251A      2.388554   252A      2.389360  
     253A      2.393180   254A      2.394059   255A      2.434620  
     256A      2.435474   257A      2.464364   258A      2.465198  
     259A      2.531216   260A      2.532026   261A      2.569628  
     262A      2.570458   263A      2.584245   264A      2.584950  
     265A      2.642391   266A      2.643194   267A      2.732448  
     268A      2.733268   269A      2.826239   270A      2.827062  
     271A      2.834139   272A      2.834977   273A      2.900971  
     274A      2.901815   275A      2.917988   276A      2.918831  
     277A      2.998630   278A      2.999388   279A      3.054743  
     280A      3.055556   281A      3.091864   282A      3.092583  
     283A      3.122136   284A      3.122961   285A      3.188443  
     286A      3.189152   287A      3.221467   288A      3.222237  
     289A      3.297342   290A      3.298087   291A      3.379663  
     292A      3.380472   293A      3.520192   294A      3.520955  
     295A      3.685735   296A      3.686791   297A      3.888674  
     298A      3.889556   299A      4.208738   300A      4.209651  
     301A      4.462475   302A      4.463465  

    Final Occupation by Irrep:
              A 
    DOCC [    36 ]

  @DF-RHF Final Energy:  -449.52479036768023

   => Energetics <=

    Nuclear Repulsion Energy =            365.8597165451800493
    One-Electron Energy =               -1332.2097237504817713
    Two-Electron Energy =                 516.8252168376214968
    Total Energy =                       -449.5247903676802252

Computation Completed


Properties will be evaluated at   0.000000,   0.000000,   0.000000 [a0]

Properties computed using the SCF density matrix

  Nuclear Dipole Moment: [e a0]
     X:   603.9244      Y:   639.6290      Z:  1163.4792

  Electronic Dipole Moment: [e a0]
     X:  -604.0356      Y:  -639.5599      Z: -1162.1954

  Dipole Moment: [e a0]
     X:    -0.1111      Y:     0.0691      Z:     1.2838     Total:     1.2905

  Dipole Moment: [D]
     X:    -0.2825      Y:     0.1755      Z:     3.2631     Total:     3.2800


*** tstop() called on ds1 at Mon Oct  4 14:45:04 2021
Module time:
	user time   =      22.02 seconds =       0.37 minutes
	system time =       0.56 seconds =       0.01 minutes
	total time  =          5 seconds =       0.08 minutes
Total time:
	user time   =      22.02 seconds =       0.37 minutes
	system time =       0.56 seconds =       0.01 minutes
	total time  =          5 seconds =       0.08 minutes

  //>>>>>>>>>>>>>>>>>>>>>>>>>>>>>>>>>>>//
  //            Monomer A HF           //
  //<<<<<<<<<<<<<<<<<<<<<<<<<<<<<<<<<<<//


*** tstart() called on ds1
*** at Mon Oct  4 14:45:04 2021

   => Loading Basis Set <=

    Name: AUG-CC-PVDZ
    Role: ORBITAL
    Keyword: BASIS
    atoms 1-2, 10-11 entry N          line   218 file /theoryfs2/ds/csargent/miniconda3/envs/cle/share/psi4/basis/aug-cc-pvdz.gbs 
    atoms 3-6, 12-15 entry H          line    40 file /theoryfs2/ds/csargent/miniconda3/envs/cle/share/psi4/basis/aug-cc-pvdz.gbs 
    atoms 7-9, 16-18 entry C          line   182 file /theoryfs2/ds/csargent/miniconda3/envs/cle/share/psi4/basis/aug-cc-pvdz.gbs 


         ---------------------------------------------------------
                                   SCF
               by Justin Turney, Rob Parrish, Andy Simmonett
                          and Daniel G. A. Smith
                              RHF Reference
                        6 Threads,   6675 MiB Core
         ---------------------------------------------------------

  ==> Geometry <==

    Molecular point group: c1
    Full point group: C1

    Geometry (in Bohr), charge = 0, multiplicity = 1:

       Center              X                  Y                   Z               Mass       
    ------------   -----------------  -----------------  -----------------  -----------------
         N            6.279812100000    -4.253033720000     0.193138650000    14.003074004430
         N            6.068707770000    -2.281256970000     1.805443170000    14.003074004430
         H            3.668711560000    -5.646289410000    -1.966840010000     1.007825032230
         H            0.690345210000    -2.375456940000    -0.428642360000     1.007825032230
         H            3.359174420000     0.176506010000     3.092650170000     1.007825032230
         H            7.352667820000    -1.994613110000     2.906807020000     1.007825032230
         C            3.779525860000    -1.215084530000     1.768581720000    12.000000000000
         C            2.382429980000    -2.555055380000     0.046076810000    12.000000000000
         C            4.017714680000    -4.384104900000    -0.887618630000    12.000000000000
      Gh(N)          10.536566840000    21.494483680000    30.456006220000    14.003074004430
      Gh(N)          10.655429100000    19.456576650000    31.993179940000    14.003074004430
      Gh(H)          13.209729570000    23.895393650000    29.737975870000     1.007825032230
      Gh(H)          16.104366130000    21.452854910000    32.493113370000     1.007825032230
      Gh(H)          13.167942060000    17.739805890000    34.397749680000     1.007825032230
      Gh(H)           9.193020890000    18.646599590000    32.378945270000     1.007825032230
      Gh(C)          12.938265500000    19.126400980000    33.022228790000    12.000000000000
      Gh(C)          14.421257940000    21.056073190000    32.132306320000    12.000000000000
      Gh(C)          12.859952610000    22.441241010000    30.540608370000    12.000000000000

  Running in c1 symmetry.

  Rotational constants: A =      0.02396  B =      0.00056  C =      0.00055 [cm^-1]
  Rotational constants: A =    718.25163  B =     16.73915  C =     16.41180 [MHz]
  Nuclear repulsion =  166.624056450327203

  Charge       = 0
  Multiplicity = 1
  Electrons    = 36
  Nalpha       = 18
  Nbeta        = 18

  ==> Algorithm <==

  SCF Algorithm Type is DF.
  DIIS enabled.
  MOM disabled.
  Fractional occupation disabled.
  Guess Type is SAD.
  Energy threshold   = 1.00e-10
  Density threshold  = 1.00e-10
  Integral threshold = 1.00e-12

  ==> Primary Basis <==

  Basis Set: AUG-CC-PVDZ
    Blend: AUG-CC-PVDZ
    Number of shells: 130
    Number of basis functions: 302
    Number of Cartesian functions: 322
    Spherical Harmonics?: true
    Max angular momentum: 2

   => Loading Basis Set <=

    Name: (AUG-CC-PVDZ AUX)
    Role: JKFIT
    Keyword: DF_BASIS_SCF
    atoms 1-2, 10-11 entry N          line   212 file /theoryfs2/ds/csargent/miniconda3/envs/cle/share/psi4/basis/aug-cc-pvdz-jkfit.gbs 
    atoms 3-6, 12-15 entry H          line    70 file /theoryfs2/ds/csargent/miniconda3/envs/cle/share/psi4/basis/aug-cc-pvdz-jkfit.gbs 
    atoms 7-9, 16-18 entry C          line   154 file /theoryfs2/ds/csargent/miniconda3/envs/cle/share/psi4/basis/aug-cc-pvdz-jkfit.gbs 

  ==> Integral Setup <==

  ==> DiskDFJK: Density-Fitted J/K Matrices <==

    J tasked:                  Yes
    K tasked:                  Yes
    wK tasked:                  No
    OpenMP threads:              6
    Integrals threads:           6
    Memory [MiB]:             5006
    Algorithm:                Core
    Integral Cache:           LOAD
    Schwarz Cutoff:          1E-12
    Fitting Condition:       1E-10

   => Auxiliary Basis Set <=

  Basis Set: (AUG-CC-PVDZ AUX)
    Blend: AUG-CC-PVDZ-JKFIT
    Number of shells: 376
    Number of basis functions: 1116
    Number of Cartesian functions: 1290
    Spherical Harmonics?: true
    Max angular momentum: 3

  Minimum eigenvalue in the overlap matrix is 3.0324469284E-05.
  Reciprocal condition number of the overlap matrix is 2.4867199357E-06.
    Using symmetric orthogonalization.

  ==> Pre-Iterations <==

  SCF Guess: Superposition of Atomic Densities via on-the-fly atomic UHF (no occupation information).

   -------------------------
    Irrep   Nso     Nmo    
   -------------------------
     A        302     302 
   -------------------------
    Total     302     302
   -------------------------

  ==> Iterations <==

                           Total Energy        Delta E     RMS |[F,P]|

   @DF-RHF iter SAD:  -224.72194801255958   -2.24722e+02   0.00000e+00 
   @DF-RHF iter   1:  -224.63549169977196    8.64563e-02   1.50472e-03 DIIS
   @DF-RHF iter   2:  -224.73984613239881   -1.04354e-01   6.88462e-04 DIIS
   @DF-RHF iter   3:  -224.76075487129560   -2.09087e-02   1.48626e-04 DIIS
   @DF-RHF iter   4:  -224.76213931507326   -1.38444e-03   6.05310e-05 DIIS
   @DF-RHF iter   5:  -224.76231766983267   -1.78355e-04   1.19893e-05 DIIS
   @DF-RHF iter   6:  -224.76233462730707   -1.69575e-05   4.96772e-06 DIIS
   @DF-RHF iter   7:  -224.76233858334459   -3.95604e-06   2.18806e-06 DIIS
   @DF-RHF iter   8:  -224.76233934408717   -7.60743e-07   1.01700e-06 DIIS
   @DF-RHF iter   9:  -224.76233951172867   -1.67642e-07   2.83302e-07 DIIS
   @DF-RHF iter  10:  -224.76233952054957   -8.82090e-09   8.55547e-08 DIIS
   @DF-RHF iter  11:  -224.76233952123911   -6.89539e-10   1.99714e-08 DIIS
   @DF-RHF iter  12:  -224.76233952128541   -4.62990e-11   5.81092e-09 DIIS
   @DF-RHF iter  13:  -224.76233952128945   -4.03588e-12   2.83097e-09 DIIS
   @DF-RHF iter  14:  -224.76233952129019   -7.38964e-13   9.75191e-10 DIIS
   @DF-RHF iter  15:  -224.76233952129090   -7.10543e-13   4.15548e-10 DIIS
   @DF-RHF iter  16:  -224.76233952129070    1.98952e-13   1.25998e-10 DIIS
   @DF-RHF iter  17:  -224.76233952129098   -2.84217e-13   4.47777e-11 DIIS
  Energy and wave function converged.


  ==> Post-Iterations <==

    Orbital Energies [Eh]
    ---------------------

    Doubly Occupied:                                                      

       1A    -15.636223     2A    -15.592313     3A    -11.279894  
       4A    -11.237784     5A    -11.209891     6A     -1.386922  
       7A     -1.121901     8A     -1.066898     9A     -0.872768  
      10A     -0.837061    11A     -0.757292    12A     -0.645746  
      13A     -0.620834    14A     -0.609140    15A     -0.583920  
      16A     -0.461404    17A     -0.370721    18A     -0.346048  

    Virtual:                                                              

      19A      0.022162    20A      0.030764    21A      0.039530  
      22A      0.042368    23A      0.043636    24A      0.049159  
      25A      0.063520    26A      0.065376    27A      0.083435  
      28A      0.090222    29A      0.098429    30A      0.100998  
      31A      0.104029    32A      0.117179    33A      0.117831  
      34A      0.125344    35A      0.126270    36A      0.127761  
      37A      0.132845    38A      0.133069    39A      0.133641  
      40A      0.138403    41A      0.141490    42A      0.156889  
      43A      0.158063    44A      0.164592    45A      0.165443  
      46A      0.171075    47A      0.178408    48A      0.178661  
      49A      0.194951    50A      0.196042    51A      0.200941  
      52A      0.204793    53A      0.206162    54A      0.222386  
      55A      0.224615    56A      0.227731    57A      0.235031  
      58A      0.240236    59A      0.243626    60A      0.244965  
      61A      0.263536    62A      0.270467    63A      0.271127  
      64A      0.279080    65A      0.301010    66A      0.321398  
      67A      0.325148    68A      0.339576    69A      0.352358  
      70A      0.355357    71A      0.366022    72A      0.372401  
      73A      0.374907    74A      0.383219    75A      0.396061  
      76A      0.402741    77A      0.414998    78A      0.426962  
      79A      0.431572    80A      0.432132    81A      0.440706  
      82A      0.441850    83A      0.443385    84A      0.453393  
      85A      0.455494    86A      0.456922    87A      0.459816  
      88A      0.461351    89A      0.478655    90A      0.498543  
      91A      0.508690    92A      0.509219    93A      0.518901  
      94A      0.521917    95A      0.532603    96A      0.537555  
      97A      0.541560    98A      0.558825    99A      0.568292  
     100A      0.571357   101A      0.574432   102A      0.586318  
     103A      0.590538   104A      0.594666   105A      0.602413  
     106A      0.612872   107A      0.620744   108A      0.620953  
     109A      0.633024   110A      0.646110   111A      0.655295  
     112A      0.676162   113A      0.690336   114A      0.698041  
     115A      0.700391   116A      0.707284   117A      0.718961  
     118A      0.721667   119A      0.725115   120A      0.735188  
     121A      0.744875   122A      0.747709   123A      0.758592  
     124A      0.773318   125A      0.781481   126A      0.789199  
     127A      0.797610   128A      0.813953   129A      0.820430  
     130A      0.828504   131A      0.838230   132A      0.848393  
     133A      0.851473   134A      0.854614   135A      0.870525  
     136A      0.880607   137A      0.881395   138A      0.888767  
     139A      0.895201   140A      0.906950   141A      0.915657  
     142A      0.924815   143A      0.942582   144A      0.951614  
     145A      0.978222   146A      0.984850   147A      0.996702  
     148A      1.011149   149A      1.023709   150A      1.029746  
     151A      1.046606   152A      1.051162   153A      1.066503  
     154A      1.070690   155A      1.080547   156A      1.100852  
     157A      1.107740   158A      1.128058   159A      1.134196  
     160A      1.150235   161A      1.158338   162A      1.165855  
     163A      1.175168   164A      1.184546   165A      1.220548  
     166A      1.221285   167A      1.236622   168A      1.267541  
     169A      1.269556   170A      1.293301   171A      1.303342  
     172A      1.311399   173A      1.314729   174A      1.340262  
     175A      1.365807   176A      1.381425   177A      1.401043  
     178A      1.434573   179A      1.444325   180A      1.474691  
     181A      1.492789   182A      1.506643   183A      1.512027  
     184A      1.526129   185A      1.560989   186A      1.590882  
     187A      1.608669   188A      1.637437   189A      1.669472  
     190A      1.676298   191A      1.688465   192A      1.703634  
     193A      1.723950   194A      1.749215   195A      1.764373  
     196A      1.805048   197A      1.875632   198A      1.932390  
     199A      1.943558   200A      1.988067   201A      2.021445  
     202A      2.040698   203A      2.057611   204A      2.088839  
     205A      2.108708   206A      2.134419   207A      2.144687  
     208A      2.167760   209A      2.190005   210A      2.200827  
     211A      2.216240   212A      2.230457   213A      2.233490  
     214A      2.261492   215A      2.275825   216A      2.277347  
     217A      2.288887   218A      2.307640   219A      2.335267  
     220A      2.360716   221A      2.380215   222A      2.389130  
     223A      2.393822   224A      2.394162   225A      2.435246  
     226A      2.443493   227A      2.464967   228A      2.477925  
     229A      2.499581   230A      2.513249   231A      2.531798  
     232A      2.548458   233A      2.570232   234A      2.584716  
     235A      2.630952   236A      2.642961   237A      2.667146  
     238A      2.702643   239A      2.718512   240A      2.733029  
     241A      2.826838   242A      2.827569   243A      2.834751  
     244A      2.869426   245A      2.889650   246A      2.901587  
     247A      2.918598   248A      2.944709   249A      2.999157  
     250A      3.027608   251A      3.055324   252A      3.089365  
     253A      3.092358   254A      3.122730   255A      3.139670  
     256A      3.181497   257A      3.188930   258A      3.222008  
     259A      3.253767   260A      3.288729   261A      3.297865  
     262A      3.355268   263A      3.380235   264A      3.395234  
     265A      3.423013   266A      3.447833   267A      3.486827  
     268A      3.497189   269A      3.520727   270A      3.633220  
     271A      3.666577   272A      3.686563   273A      3.735252  
     274A      3.769734   275A      3.850746   276A      3.889327  
     277A      3.964174   278A      4.035241   279A      4.094382  
     280A      4.209428   281A      4.243697   282A      4.447871  
     283A      4.463235   284A      4.658082   285A      4.707775  
     286A      4.749578   287A      4.810456   288A      4.994479  
     289A      5.076331   290A      5.240874   291A      5.531097  
     292A      5.668641   293A      5.826283   294A      6.106649  
     295A      6.317844   296A      6.707216   297A      6.967120  
     298A     18.110823   299A     18.647700   300A     19.373342  
     301A     25.245043   302A     25.704938  

    Final Occupation by Irrep:
              A 
    DOCC [    18 ]

  @DF-RHF Final Energy:  -224.76233952129098

   => Energetics <=

    Nuclear Repulsion Energy =            166.6240564503272026
    One-Electron Energy =                -633.4992733849516071
    Two-Electron Energy =                 242.1128774133334218
    Total Energy =                       -224.7623395212909827

Computation Completed


Properties will be evaluated at   0.000000,   0.000000,   0.000000 [a0]

Properties computed using the SCF density matrix

  Nuclear Dipole Moment: [e a0]
     X:   162.5886      Y:  -104.5054      Z:    23.1563

  Electronic Dipole Moment: [e a0]
     X:  -162.9913      Y:   105.1370      Z:   -22.5767

  Dipole Moment: [e a0]
     X:    -0.4027      Y:     0.6317      Z:     0.5796     Total:     0.9472

  Dipole Moment: [D]
     X:    -1.0235      Y:     1.6055      Z:     1.4733     Total:     2.4075


*** tstop() called on ds1 at Mon Oct  4 14:45:08 2021
Module time:
	user time   =      16.89 seconds =       0.28 minutes
	system time =       0.37 seconds =       0.01 minutes
	total time  =          4 seconds =       0.07 minutes
Total time:
	user time   =      39.13 seconds =       0.65 minutes
	system time =       0.93 seconds =       0.02 minutes
	total time  =          9 seconds =       0.15 minutes

  //>>>>>>>>>>>>>>>>>>>>>>>>>>>>>>>>>>>//
  //            Monomer B HF           //
  //<<<<<<<<<<<<<<<<<<<<<<<<<<<<<<<<<<<//


*** tstart() called on ds1
*** at Mon Oct  4 14:45:08 2021

   => Loading Basis Set <=

    Name: AUG-CC-PVDZ
    Role: ORBITAL
    Keyword: BASIS
    atoms 1-2, 10-11 entry N          line   218 file /theoryfs2/ds/csargent/miniconda3/envs/cle/share/psi4/basis/aug-cc-pvdz.gbs 
    atoms 3-6, 12-15 entry H          line    40 file /theoryfs2/ds/csargent/miniconda3/envs/cle/share/psi4/basis/aug-cc-pvdz.gbs 
    atoms 7-9, 16-18 entry C          line   182 file /theoryfs2/ds/csargent/miniconda3/envs/cle/share/psi4/basis/aug-cc-pvdz.gbs 


         ---------------------------------------------------------
                                   SCF
               by Justin Turney, Rob Parrish, Andy Simmonett
                          and Daniel G. A. Smith
                              RHF Reference
                        6 Threads,   6675 MiB Core
         ---------------------------------------------------------

  ==> Geometry <==

    Molecular point group: c1
    Full point group: C1

    Geometry (in Bohr), charge = 0, multiplicity = 1:

       Center              X                  Y                   Z               Mass       
    ------------   -----------------  -----------------  -----------------  -----------------
      Gh(N)           6.279812100000    -4.253033720000     0.193138650000    14.003074004430
      Gh(N)           6.068707770000    -2.281256970000     1.805443170000    14.003074004430
      Gh(H)           3.668711560000    -5.646289410000    -1.966840010000     1.007825032230
      Gh(H)           0.690345210000    -2.375456940000    -0.428642360000     1.007825032230
      Gh(H)           3.359174420000     0.176506010000     3.092650170000     1.007825032230
      Gh(H)           7.352667820000    -1.994613110000     2.906807020000     1.007825032230
      Gh(C)           3.779525860000    -1.215084530000     1.768581720000    12.000000000000
      Gh(C)           2.382429980000    -2.555055380000     0.046076810000    12.000000000000
      Gh(C)           4.017714680000    -4.384104900000    -0.887618630000    12.000000000000
         N           10.536566840000    21.494483680000    30.456006220000    14.003074004430
         N           10.655429100000    19.456576650000    31.993179940000    14.003074004430
         H           13.209729570000    23.895393650000    29.737975870000     1.007825032230
         H           16.104366130000    21.452854910000    32.493113370000     1.007825032230
         H           13.167942060000    17.739805890000    34.397749680000     1.007825032230
         H            9.193020890000    18.646599590000    32.378945270000     1.007825032230
         C           12.938265500000    19.126400980000    33.022228790000    12.000000000000
         C           14.421257940000    21.056073190000    32.132306320000    12.000000000000
         C           12.859952610000    22.441241010000    30.540608370000    12.000000000000

  Running in c1 symmetry.

  Rotational constants: A =      0.02396  B =      0.00056  C =      0.00055 [cm^-1]
  Rotational constants: A =    718.25163  B =     16.73915  C =     16.41180 [MHz]
  Nuclear repulsion =  166.628602818044897

  Charge       = 0
  Multiplicity = 1
  Electrons    = 36
  Nalpha       = 18
  Nbeta        = 18

  ==> Algorithm <==

  SCF Algorithm Type is DF.
  DIIS enabled.
  MOM disabled.
  Fractional occupation disabled.
  Guess Type is SAD.
  Energy threshold   = 1.00e-10
  Density threshold  = 1.00e-10
  Integral threshold = 1.00e-12

  ==> Primary Basis <==

  Basis Set: AUG-CC-PVDZ
    Blend: AUG-CC-PVDZ
    Number of shells: 130
    Number of basis functions: 302
    Number of Cartesian functions: 322
    Spherical Harmonics?: true
    Max angular momentum: 2

   => Loading Basis Set <=

    Name: (AUG-CC-PVDZ AUX)
    Role: JKFIT
    Keyword: DF_BASIS_SCF
    atoms 1-2, 10-11 entry N          line   212 file /theoryfs2/ds/csargent/miniconda3/envs/cle/share/psi4/basis/aug-cc-pvdz-jkfit.gbs 
    atoms 3-6, 12-15 entry H          line    70 file /theoryfs2/ds/csargent/miniconda3/envs/cle/share/psi4/basis/aug-cc-pvdz-jkfit.gbs 
    atoms 7-9, 16-18 entry C          line   154 file /theoryfs2/ds/csargent/miniconda3/envs/cle/share/psi4/basis/aug-cc-pvdz-jkfit.gbs 

  ==> Integral Setup <==

  ==> DiskDFJK: Density-Fitted J/K Matrices <==

    J tasked:                  Yes
    K tasked:                  Yes
    wK tasked:                  No
    OpenMP threads:              6
    Integrals threads:           6
    Memory [MiB]:             5006
    Algorithm:                Core
    Integral Cache:           LOAD
    Schwarz Cutoff:          1E-12
    Fitting Condition:       1E-10

   => Auxiliary Basis Set <=

  Basis Set: (AUG-CC-PVDZ AUX)
    Blend: AUG-CC-PVDZ-JKFIT
    Number of shells: 376
    Number of basis functions: 1116
    Number of Cartesian functions: 1290
    Spherical Harmonics?: true
    Max angular momentum: 3

  Minimum eigenvalue in the overlap matrix is 3.0324469284E-05.
  Reciprocal condition number of the overlap matrix is 2.4867199357E-06.
    Using symmetric orthogonalization.

  ==> Pre-Iterations <==

  SCF Guess: Superposition of Atomic Densities via on-the-fly atomic UHF (no occupation information).

   -------------------------
    Irrep   Nso     Nmo    
   -------------------------
     A        302     302 
   -------------------------
    Total     302     302
   -------------------------

  ==> Iterations <==

                           Total Energy        Delta E     RMS |[F,P]|

   @DF-RHF iter SAD:  -224.72250854589979   -2.24723e+02   0.00000e+00 
   @DF-RHF iter   1:  -224.63556595914528    8.69426e-02   1.50490e-03 DIIS
   @DF-RHF iter   2:  -224.73993304673075   -1.04367e-01   6.88620e-04 DIIS
   @DF-RHF iter   3:  -224.76085080011950   -2.09178e-02   1.48614e-04 DIIS
   @DF-RHF iter   4:  -224.76223499878341   -1.38420e-03   6.05151e-05 DIIS
   @DF-RHF iter   5:  -224.76241324328691   -1.78245e-04   1.19848e-05 DIIS
   @DF-RHF iter   6:  -224.76243017643625   -1.69331e-05   4.96323e-06 DIIS
   @DF-RHF iter   7:  -224.76243412427903   -3.94784e-06   2.18627e-06 DIIS
   @DF-RHF iter   8:  -224.76243488381766   -7.59539e-07   1.01631e-06 DIIS
   @DF-RHF iter   9:  -224.76243505132251   -1.67505e-07   2.83280e-07 DIIS
   @DF-RHF iter  10:  -224.76243506014026   -8.81775e-09   8.55270e-08 DIIS
   @DF-RHF iter  11:  -224.76243506082974   -6.89482e-10   1.99678e-08 DIIS
   @DF-RHF iter  12:  -224.76243506087570   -4.59579e-11   5.80973e-09 DIIS
   @DF-RHF iter  13:  -224.76243506088002   -4.32010e-12   2.83582e-09 DIIS
   @DF-RHF iter  14:  -224.76243506088127   -1.25056e-12   9.79832e-10 DIIS
   @DF-RHF iter  15:  -224.76243506088150   -2.27374e-13   4.16538e-10 DIIS
   @DF-RHF iter  16:  -224.76243506088139    1.13687e-13   1.25809e-10 DIIS
   @DF-RHF iter  17:  -224.76243506088107    3.12639e-13   4.47598e-11 DIIS
  Energy and wave function converged.


  ==> Post-Iterations <==

    Orbital Energies [Eh]
    ---------------------

    Doubly Occupied:                                                      

       1A    -15.636233     2A    -15.592291     3A    -11.279903  
       4A    -11.237759     5A    -11.209884     6A     -1.387001  
       7A     -1.121894     8A     -1.066928     9A     -0.872759  
      10A     -0.837039    11A     -0.757272    12A     -0.645745  
      13A     -0.620828    14A     -0.609177    15A     -0.583905  
      16A     -0.461413    17A     -0.370715    18A     -0.346055  

    Virtual:                                                              

      19A      0.022941    20A      0.030764    21A      0.040302  
      22A      0.042369    23A      0.044398    24A      0.049158  
      25A      0.063519    26A      0.066162    27A      0.084233  
      28A      0.090997    29A      0.099222    30A      0.101001  
      31A      0.104028    32A      0.117186    33A      0.118617  
      34A      0.126089    35A      0.126272    36A      0.128547  
      37A      0.133070    38A      0.133637    39A      0.134389  
      40A      0.138399    41A      0.141487    42A      0.156889  
      43A      0.158804    44A      0.164594    45A      0.166236  
      46A      0.171081    47A      0.178407    48A      0.179469  
      49A      0.195757    50A      0.196041    51A      0.201768  
      52A      0.204806    53A      0.206166    54A      0.223194  
      55A      0.225409    56A      0.228510    57A      0.235833  
      58A      0.240240    59A      0.243627    60A      0.244965  
      61A      0.264311    62A      0.271138    63A      0.271302  
      64A      0.279081    65A      0.301024    66A      0.322177  
      67A      0.325138    68A      0.340375    69A      0.352355  
      70A      0.355359    71A      0.366819    72A      0.373167  
      73A      0.374909    74A      0.384002    75A      0.396062  
      76A      0.402744    77A      0.415005    78A      0.427763  
      79A      0.432131    80A      0.432341    81A      0.441463  
      82A      0.442623    83A      0.443379    84A      0.453414  
      85A      0.456282    86A      0.457702    87A      0.459816  
      88A      0.462163    89A      0.478656    90A      0.498544  
      91A      0.508693    92A      0.510019    93A      0.519714  
      94A      0.521953    95A      0.533423    96A      0.538320  
      97A      0.541569    98A      0.559601    99A      0.569123  
     100A      0.572126   101A      0.574428   102A      0.586322  
     103A      0.590547   104A      0.595461   105A      0.602431  
     106A      0.613646   107A      0.620974   108A      0.621529  
     109A      0.633811   110A      0.646111   111A      0.655304  
     112A      0.676168   113A      0.691132   114A      0.698039  
     115A      0.700384   116A      0.708097   117A      0.719735  
     118A      0.721648   119A      0.725121   120A      0.735966  
     121A      0.745642   122A      0.747717   123A      0.758643  
     124A      0.773300   125A      0.781476   126A      0.789970  
     127A      0.798417   128A      0.814743   129A      0.821207  
     130A      0.828513   131A      0.838238   132A      0.848382  
     133A      0.852240   134A      0.855410   135A      0.871314  
     136A      0.881364   137A      0.881396   138A      0.888762  
     139A      0.895974   140A      0.906950   141A      0.916460  
     142A      0.924803   143A      0.942599   144A      0.952388  
     145A      0.978204   146A      0.984853   147A      0.997489  
     148A      1.011170   149A      1.024496   150A      1.030561  
     151A      1.046624   152A      1.051986   153A      1.066503  
     154A      1.071476   155A      1.081314   156A      1.100853  
     157A      1.108517   158A      1.128099   159A      1.134152  
     160A      1.150240   161A      1.159144   162A      1.166638  
     163A      1.175167   164A      1.185335   165A      1.220538  
     166A      1.222078   167A      1.237404   168A      1.268355  
     169A      1.269573   170A      1.294092   171A      1.303390  
     172A      1.311431   173A      1.315516   174A      1.341061  
     175A      1.365802   176A      1.382208   177A      1.401039  
     178A      1.435373   179A      1.445100   180A      1.474706  
     181A      1.493618   182A      1.507407   183A      1.512021  
     184A      1.526136   185A      1.560976   186A      1.590889  
     187A      1.608679   188A      1.637435   189A      1.669494  
     190A      1.677104   191A      1.689281   192A      1.703636  
     193A      1.723957   194A      1.749249   195A      1.764367  
     196A      1.805025   197A      1.875589   198A      1.932406  
     199A      1.943562   200A      1.988139   201A      2.021453  
     202A      2.041470   203A      2.057662   204A      2.088810  
     205A      2.109493   206A      2.135235   207A      2.144708  
     208A      2.168522   209A      2.189999   210A      2.200828  
     211A      2.217048   212A      2.230454   213A      2.234263  
     214A      2.262268   215A      2.275832   216A      2.278144  
     217A      2.289669   218A      2.307637   219A      2.336118  
     220A      2.360646   221A      2.380962   222A      2.389121  
     223A      2.393758   224A      2.394950   225A      2.435199  
     226A      2.444293   227A      2.464942   228A      2.478729  
     229A      2.500304   230A      2.514017   231A      2.531785  
     232A      2.549233   233A      2.570195   234A      2.584820  
     235A      2.631739   236A      2.642959   237A      2.667932  
     238A      2.703429   239A      2.719299   240A      2.733013  
     241A      2.826807   242A      2.828314   243A      2.834707  
     244A      2.870220   245A      2.890445   246A      2.901543  
     247A      2.918563   248A      2.945548   249A      2.999195  
     250A      3.028476   251A      3.055311   252A      3.090244  
     253A      3.092440   254A      3.122703   255A      3.140438  
     256A      3.182376   257A      3.189011   258A      3.222030  
     259A      3.254543   260A      3.289587   261A      3.297913  
     262A      3.356173   263A      3.380219   264A      3.395999  
     265A      3.423905   266A      3.448696   267A      3.487575  
     268A      3.497919   269A      3.520764   270A      3.633951  
     271A      3.667355   272A      3.686295   273A      3.736024  
     274A      3.770488   275A      3.851573   276A      3.889250  
     277A      3.964812   278A      4.035914   279A      4.095167  
     280A      4.209312   281A      4.244499   282A      4.448837  
     283A      4.463032   284A      4.658816   285A      4.708452  
     286A      4.750351   287A      4.811196   288A      4.995281  
     289A      5.077215   290A      5.241869   291A      5.531655  
     292A      5.669369   293A      5.827274   294A      6.107109  
     295A      6.318740   296A      6.708793   297A      6.968281  
     298A     18.111601   299A     18.648278   300A     19.374019  
     301A     25.245955   302A     25.705367  

    Final Occupation by Irrep:
              A 
    DOCC [    18 ]

  @DF-RHF Final Energy:  -224.76243506088107

   => Energetics <=

    Nuclear Repulsion Energy =            166.6286028180448966
    One-Electron Energy =                -633.5084734134554765
    Two-Electron Energy =                 242.1174355345295055
    Total Energy =                       -224.7624350608810744

Computation Completed


Properties will be evaluated at   0.000000,   0.000000,   0.000000 [a0]

Properties computed using the SCF density matrix

  Nuclear Dipole Moment: [e a0]
     X:   441.3359      Y:   744.1344      Z:  1140.3229

  Electronic Dipole Moment: [e a0]
     X:  -441.0450      Y:  -744.6984      Z: -1139.6198

  Dipole Moment: [e a0]
     X:     0.2909      Y:    -0.5640      Z:     0.7031     Total:     0.9472

  Dipole Moment: [D]
     X:     0.7394      Y:    -1.4336      Z:     1.7871     Total:     2.4074


*** tstop() called on ds1 at Mon Oct  4 14:45:12 2021
Module time:
	user time   =      15.75 seconds =       0.26 minutes
	system time =       0.32 seconds =       0.01 minutes
	total time  =          4 seconds =       0.07 minutes
Total time:
	user time   =      55.32 seconds =       0.92 minutes
	system time =       1.27 seconds =       0.02 minutes
	total time  =         13 seconds =       0.22 minutes
  Constructing Basis Sets for SAPT...

   => Loading Basis Set <=

    Name: (AUG-CC-PVDZ AUX)
    Role: RIFIT
    Keyword: DF_BASIS_SAPT
    atoms 1-2, 10-11 entry N          line   158 file /theoryfs2/ds/csargent/miniconda3/envs/cle/share/psi4/basis/aug-cc-pvdz-ri.gbs 
    atoms 3-6, 12-15 entry H          line    30 file /theoryfs2/ds/csargent/miniconda3/envs/cle/share/psi4/basis/aug-cc-pvdz-ri.gbs 
    atoms 7-9, 16-18 entry C          line   112 file /theoryfs2/ds/csargent/miniconda3/envs/cle/share/psi4/basis/aug-cc-pvdz-ri.gbs 


  //>>>>>>>>>>>>>>>>>>>>>>>>>>>>>>>>>>>//
  //               SAPT0               //
  //<<<<<<<<<<<<<<<<<<<<<<<<<<<<<<<<<<<//


*** tstart() called on ds1
*** at Mon Oct  4 14:45:12 2021

        SAPT0  
    Ed Hohenstein
     6 June 2009

      Orbital Information
  --------------------------
    NSO        =       302
    NMO        =       302
    NRI        =       904
    NOCC A     =        18
    NOCC B     =        18
    FOCC A     =         5
    FOCC B     =         5
    NVIR A     =       284
    NVIR B     =       284

    Elst10,r            =    -0.000015804483 [Eh]
    Exch10              =     0.000000000000 [Eh]
    Exch10 (S^2)        =     0.000000000000 [Eh]

    Iter     Energy [mEh]          dE [mEh]         Residual      Time [s]
       1      -0.00000913       0.000009131       0.032265917             0
       2      -0.00000839      -0.000000741       0.008066377             0
       3      -0.00000919       0.000000805       0.003799186             0
       4      -0.00000937       0.000000177       0.001152998             0
       5      -0.00000934      -0.000000035       0.000755071             0
       6      -0.00000932      -0.000000017       0.000231371             1
       7      -0.00000932       0.000000004       0.000096222             1
       8      -0.00000933       0.000000002       0.000030303             1
       9      -0.00000933      -0.000000000       0.000007065             1
      10      -0.00000933      -0.000000000       0.000001645             1
      11      -0.00000933       0.000000000       0.000000675             1

    CHF Iterations converged


    Iter     Energy [mEh]          dE [mEh]         Residual      Time [s]
       1      -0.00001940       0.000019395       0.047061428             0
       2      -0.00001756      -0.000001838       0.011597824             0
       3      -0.00001869       0.000001134       0.005516362             1
       4      -0.00001922       0.000000527       0.001059665             1
       5      -0.00001915      -0.000000063       0.000640678             1
       6      -0.00001914      -0.000000013       0.000228722             1
       7      -0.00001915       0.000000006       0.000094231             1
       8      -0.00001915       0.000000002       0.000033540             1
       9      -0.00001915      -0.000000000       0.000010768             1
      10      -0.00001915      -0.000000000       0.000002808             1
      11      -0.00001915       0.000000000       0.000001218             2
      12      -0.00001915       0.000000000       0.000000410             2

    CHF Iterations converged

    Ind20,r (A<-B)      =    -0.000000009325 [Eh]
    Ind20,r (B<-A)      =    -0.000000019150 [Eh]
    Ind20,r             =    -0.000000028475 [Eh]
    Exch-Ind20,r (A<-B) =     0.000000000000 [Eh]
    Exch-Ind20,r (B<-A) =     0.000000000000 [Eh]
    Exch-Ind20,r        =     0.000000000000 [Eh]
    Disp20              =    -0.000000283271 [Eh]
    Disp20 (SS)         =    -0.000000141636 [Eh]
    Disp20 (OS)         =    -0.000000141636 [Eh]
    Exch-Disp20         =     0.000000000000 [Eh]
    Exch-Disp20 (SS)    =     0.000000000000 [Eh]
    Exch-Disp20 (OS)    =     0.000000000000 [Eh]

    SAPT Results 
  --------------------------------------------------------------------------------------------------------
    Electrostatics                 -0.01580448 [mEh]      -0.00991746 [kcal/mol]      -0.04149466 [kJ/mol]
      Elst10,r                     -0.01580448 [mEh]      -0.00991746 [kcal/mol]      -0.04149466 [kJ/mol]

    Exchange                        0.00000000 [mEh]       0.00000000 [kcal/mol]       0.00000000 [kJ/mol]
      Exch10                        0.00000000 [mEh]       0.00000000 [kcal/mol]       0.00000000 [kJ/mol]
      Exch10(S^2)                   0.00000000 [mEh]       0.00000000 [kcal/mol]       0.00000000 [kJ/mol]

    Induction                       0.00001897 [mEh]       0.00001191 [kcal/mol]       0.00004982 [kJ/mol]
      Ind20,r                      -0.00002847 [mEh]      -0.00001787 [kcal/mol]      -0.00007476 [kJ/mol]
      Exch-Ind20,r                  0.00000000 [mEh]       0.00000000 [kcal/mol]       0.00000000 [kJ/mol]
      delta HF,r (2)                0.00004745 [mEh]       0.00002978 [kcal/mol]       0.00012458 [kJ/mol]

    Dispersion                     -0.00028327 [mEh]      -0.00017776 [kcal/mol]      -0.00074373 [kJ/mol]
      Disp20                       -0.00028327 [mEh]      -0.00017776 [kcal/mol]      -0.00074373 [kJ/mol]
      Exch-Disp20                   0.00000000 [mEh]       0.00000000 [kcal/mol]       0.00000000 [kJ/mol]
      Disp20 (SS)                  -0.00014164 [mEh]      -0.00008888 [kcal/mol]      -0.00037186 [kJ/mol]
      Disp20 (OS)                  -0.00014164 [mEh]      -0.00008888 [kcal/mol]      -0.00037186 [kJ/mol]
      Exch-Disp20 (SS)              0.00000000 [mEh]       0.00000000 [kcal/mol]       0.00000000 [kJ/mol]
      Exch-Disp20 (OS)              0.00000000 [mEh]       0.00000000 [kcal/mol]       0.00000000 [kJ/mol]

  Total HF                         -0.01578551 [mEh]      -0.00990556 [kcal/mol]      -0.04144485 [kJ/mol]
  Total SAPT0                      -0.01606878 [mEh]      -0.01008331 [kcal/mol]      -0.04218857 [kJ/mol]

  Special recipe for scaled SAPT0 (see Manual):
    Electrostatics sSAPT0          -0.01580448 [mEh]      -0.00991746 [kcal/mol]      -0.04149466 [kJ/mol]
    Exchange sSAPT0                 0.00000000 [mEh]       0.00000000 [kcal/mol]       0.00000000 [kJ/mol]
    Induction sSAPT0                0.00001897 [mEh]       0.00001191 [kcal/mol]       0.00004982 [kJ/mol]
    Dispersion sSAPT0              -0.00028327 [mEh]      -0.00017776 [kcal/mol]      -0.00074373 [kJ/mol]
  Total sSAPT0                     -0.01606878 [mEh]      -0.01008331 [kcal/mol]      -0.04218857 [kJ/mol]
  --------------------------------------------------------------------------------------------------------

*** tstop() called on ds1 at Mon Oct  4 14:45:21 2021
Module time:
	user time   =      44.18 seconds =       0.74 minutes
	system time =       3.89 seconds =       0.06 minutes
	total time  =          9 seconds =       0.15 minutes
Total time:
	user time   =     100.05 seconds =       1.67 minutes
	system time =       5.18 seconds =       0.09 minutes
	total time  =         22 seconds =       0.37 minutes


Warning! sapt0 does not have an associated derived wavefunction.The returned wavefunction is the dimer SCF wavefunction.


    Psi4 stopped on: Monday, 04 October 2021 02:45PM
    Psi4 wall time for execution: 0:00:21.85

*** Psi4 exiting successfully. Buy a developer a beer!
