
    -----------------------------------------------------------------------
          Psi4: An Open-Source Ab Initio Electronic Structure Package
                               Psi4 1.4rc3 

                         Git: Rev {HEAD} 080dba6 


    D. G. A. Smith, L. A. Burns, A. C. Simmonett, R. M. Parrish,
    M. C. Schieber, R. Galvelis, P. Kraus, H. Kruse, R. Di Remigio,
    A. Alenaizan, A. M. James, S. Lehtola, J. P. Misiewicz, M. Scheurer,
    R. A. Shaw, J. B. Schriber, Y. Xie, Z. L. Glick, D. A. Sirianni,
    J. S. O'Brien, J. M. Waldrop, A. Kumar, E. G. Hohenstein,
    B. P. Pritchard, B. R. Brooks, H. F. Schaefer III, A. Yu. Sokolov,
    K. Patkowski, A. E. DePrince III, U. Bozkaya, R. A. King,
    F. A. Evangelista, J. M. Turney, T. D. Crawford, C. D. Sherrill,
    J. Chem. Phys. 152(18) 184108 (2020). https://doi.org/10.1063/5.0006002

                            Additional Code Authors
    E. T. Seidl, C. L. Janssen, E. F. Valeev, M. L. Leininger,
    J. F. Gonthier, R. M. Richard, H. R. McAlexander, M. Saitow, X. Wang,
    P. Verma, and M. H. Lechner

             Previous Authors, Complete List of Code Contributors,
                       and Citations for Specific Modules
    https://github.com/psi4/psi4/blob/master/codemeta.json
    https://github.com/psi4/psi4/graphs/contributors
    http://psicode.org/psi4manual/master/introduction.html#citing-psifour

    -----------------------------------------------------------------------


    Psi4 started on: Monday, 04 October 2021 03:34PM

    Process ID: 13327
    Host:       ds1
    PSIDATADIR: /theoryfs2/ds/csargent/miniconda3/envs/cle/share/psi4
    Memory:     500.0 MiB
    Threads:    6
    
  ==> Input File <==

--------------------------------------------------------------------------
# PSI4 file produced by CrystaLattE

# Generated from:               pyrazole.xyz
# Psithon input for N-mer:      2mer-0+308
# Number of atoms per monomer:  [9, 9]
# Number of replicas:           1
# COM priority:                 3.067166999099e-05
# Minimum COM separations:      16.905 
# Separation priority:          4.785750267186e-05
# Minimum monomer separations:  14.575 
# Cutoff priority:              1.737534259029e-06
# Nuclear repulsion energy:     373.74132976813655

memory 7 GB

molecule Dimer_0_308 {
  N            6.27981210      -4.25303372       0.19313865 
  N            6.06870777      -2.28125697       1.80544317 
  H            3.66871156      -5.64628941      -1.96684001 
  H            0.69034521      -2.37545694      -0.42864236 
  H            3.35917442       0.17650601       3.09265017 
  H            7.35266782      -1.99461311       2.90680702 
  C            3.77952586      -1.21508453       1.76858172 
  C            2.38242998      -2.55505538       0.04607681 
  C            4.01771468      -4.38410490      -0.88761863 
--
  N           10.53656684      -2.29338878      30.45600622 
  N           10.65542910      -4.33129582      31.99317994 
  H           13.20972957       0.10752118      29.73797587 
  H           16.10436613      -2.33501756      32.49311337 
  H           13.16794206      -6.04806657      34.39774968 
  H            9.19302089      -5.14127288      32.37894527 
  C           12.93826550      -4.66147149      33.02222879 
  C           14.42125794      -2.73179927      32.13230632 
  C           12.85995261      -1.34663146      30.54060837 
units = au
no_com
no_reorient
}

set {
  e_convergence 10
  d_convergence 10
  scf_type df
  mp2_type df
  cc_type df
  freeze_core true
}

energy('sapt0/aug-cc-pvdz')

--------------------------------------------------------------------------

  Memory set to   6.519 GiB by Python driver.

Scratch directory: /scratch/csargent/psi4.7158.66302/

Scratch directory: /scratch/csargent/psi4.7158.66302/

  //>>>>>>>>>>>>>>>>>>>>>>>>>>>>>>>>>>>//
  //              Dimer HF             //
  //<<<<<<<<<<<<<<<<<<<<<<<<<<<<<<<<<<<//


*** tstart() called on ds1
*** at Mon Oct  4 15:34:21 2021

   => Loading Basis Set <=

    Name: AUG-CC-PVDZ
    Role: ORBITAL
    Keyword: BASIS
    atoms 1-2, 10-11 entry N          line   218 file /theoryfs2/ds/csargent/miniconda3/envs/cle/share/psi4/basis/aug-cc-pvdz.gbs 
    atoms 3-6, 12-15 entry H          line    40 file /theoryfs2/ds/csargent/miniconda3/envs/cle/share/psi4/basis/aug-cc-pvdz.gbs 
    atoms 7-9, 16-18 entry C          line   182 file /theoryfs2/ds/csargent/miniconda3/envs/cle/share/psi4/basis/aug-cc-pvdz.gbs 


         ---------------------------------------------------------
                                   SCF
               by Justin Turney, Rob Parrish, Andy Simmonett
                          and Daniel G. A. Smith
                              RHF Reference
                        6 Threads,   6675 MiB Core
         ---------------------------------------------------------

  ==> Geometry <==

    Molecular point group: c1
    Full point group: C1

    Geometry (in Bohr), charge = 0, multiplicity = 1:

       Center              X                  Y                   Z               Mass       
    ------------   -----------------  -----------------  -----------------  -----------------
         N            6.279812100000    -4.253033720000     0.193138650000    14.003074004430
         N            6.068707770000    -2.281256970000     1.805443170000    14.003074004430
         H            3.668711560000    -5.646289410000    -1.966840010000     1.007825032230
         H            0.690345210000    -2.375456940000    -0.428642360000     1.007825032230
         H            3.359174420000     0.176506010000     3.092650170000     1.007825032230
         H            7.352667820000    -1.994613110000     2.906807020000     1.007825032230
         C            3.779525860000    -1.215084530000     1.768581720000    12.000000000000
         C            2.382429980000    -2.555055380000     0.046076810000    12.000000000000
         C            4.017714680000    -4.384104900000    -0.887618630000    12.000000000000
         N           10.536566840000    -2.293388780000    30.456006220000    14.003074004430
         N           10.655429100000    -4.331295820000    31.993179940000    14.003074004430
         H           13.209729570000     0.107521180000    29.737975870000     1.007825032230
         H           16.104366130000    -2.335017560000    32.493113370000     1.007825032230
         H           13.167942060000    -6.048066570000    34.397749680000     1.007825032230
         H            9.193020890000    -5.141272880000    32.378945270000     1.007825032230
         C           12.938265500000    -4.661471490000    33.022228790000    12.000000000000
         C           14.421257940000    -2.731799270000    32.132306320000    12.000000000000
         C           12.859952610000    -1.346631460000    30.540608370000    12.000000000000

  Running in c1 symmetry.

  Rotational constants: A =      0.02883  B =      0.00075  C =      0.00074 [cm^-1]
  Rotational constants: A =    864.32923  B =     22.60171  C =     22.15774 [MHz]
  Nuclear repulsion =  373.741329723070578

  Charge       = 0
  Multiplicity = 1
  Electrons    = 72
  Nalpha       = 36
  Nbeta        = 36

  ==> Algorithm <==

  SCF Algorithm Type is DF.
  DIIS enabled.
  MOM disabled.
  Fractional occupation disabled.
  Guess Type is SAD.
  Energy threshold   = 1.00e-10
  Density threshold  = 1.00e-10
  Integral threshold = 1.00e-12

  ==> Primary Basis <==

  Basis Set: AUG-CC-PVDZ
    Blend: AUG-CC-PVDZ
    Number of shells: 130
    Number of basis functions: 302
    Number of Cartesian functions: 322
    Spherical Harmonics?: true
    Max angular momentum: 2

   => Loading Basis Set <=

    Name: (AUG-CC-PVDZ AUX)
    Role: JKFIT
    Keyword: DF_BASIS_SCF
    atoms 1-2, 10-11 entry N          line   212 file /theoryfs2/ds/csargent/miniconda3/envs/cle/share/psi4/basis/aug-cc-pvdz-jkfit.gbs 
    atoms 3-6, 12-15 entry H          line    70 file /theoryfs2/ds/csargent/miniconda3/envs/cle/share/psi4/basis/aug-cc-pvdz-jkfit.gbs 
    atoms 7-9, 16-18 entry C          line   154 file /theoryfs2/ds/csargent/miniconda3/envs/cle/share/psi4/basis/aug-cc-pvdz-jkfit.gbs 

  ==> Integral Setup <==

  ==> DiskDFJK: Density-Fitted J/K Matrices <==

    J tasked:                  Yes
    K tasked:                  Yes
    wK tasked:                  No
    OpenMP threads:              6
    Integrals threads:           6
    Memory [MiB]:             5006
    Algorithm:                Core
    Integral Cache:           SAVE
    Schwarz Cutoff:          1E-12
    Fitting Condition:       1E-10

   => Auxiliary Basis Set <=

  Basis Set: (AUG-CC-PVDZ AUX)
    Blend: AUG-CC-PVDZ-JKFIT
    Number of shells: 376
    Number of basis functions: 1116
    Number of Cartesian functions: 1290
    Spherical Harmonics?: true
    Max angular momentum: 3

  Minimum eigenvalue in the overlap matrix is 3.0324466697E-05.
  Reciprocal condition number of the overlap matrix is 2.4867197170E-06.
    Using symmetric orthogonalization.

  ==> Pre-Iterations <==

  SCF Guess: Superposition of Atomic Densities via on-the-fly atomic UHF (no occupation information).

   -------------------------
    Irrep   Nso     Nmo    
   -------------------------
     A        302     302 
   -------------------------
    Total     302     302
   -------------------------

  ==> Iterations <==

                           Total Energy        Delta E     RMS |[F,P]|

   @DF-RHF iter SAD:  -449.44445655344970   -4.49444e+02   0.00000e+00 
   @DF-RHF iter   1:  -449.27119229026556    1.73264e-01   2.12779e-03 DIIS
   @DF-RHF iter   2:  -449.47988878209611   -2.08696e-01   9.73075e-04 DIIS
   @DF-RHF iter   3:  -449.52165807490729   -4.17693e-02   2.09943e-04 DIIS
   @DF-RHF iter   4:  -449.52442293248981   -2.76486e-03   8.54278e-05 DIIS
   @DF-RHF iter   5:  -449.52477819227266   -3.55260e-04   1.69607e-05 DIIS
   @DF-RHF iter   6:  -449.52481207243943   -3.38802e-05   7.02315e-06 DIIS
   @DF-RHF iter   7:  -449.52481997278710   -7.90035e-06   3.10048e-06 DIIS
   @DF-RHF iter   8:  -449.52482149616822   -1.52338e-06   1.43755e-06 DIIS
   @DF-RHF iter   9:  -449.52482183210532   -3.35937e-07   4.00205e-07 DIIS
   @DF-RHF iter  10:  -449.52482184973815   -1.76328e-08   1.20759e-07 DIIS
   @DF-RHF iter  11:  -449.52482185111239   -1.37425e-09   2.82007e-08 DIIS
   @DF-RHF iter  12:  -449.52482185120482   -9.24274e-11   8.19683e-09 DIIS
   @DF-RHF iter  13:  -449.52482185121301   -8.18545e-12   3.99142e-09 DIIS
   @DF-RHF iter  14:  -449.52482185121539   -2.38742e-12   1.37458e-09 DIIS
   @DF-RHF iter  15:  -449.52482185121562   -2.27374e-13   5.86146e-10 DIIS
   @DF-RHF iter  16:  -449.52482185121568   -5.68434e-14   1.78680e-10 DIIS
   @DF-RHF iter  17:  -449.52482185121556    1.13687e-13   6.43766e-11 DIIS
  Energy and wave function converged.


  ==> Post-Iterations <==

    Orbital Energies [Eh]
    ---------------------

    Doubly Occupied:                                                      

       1A    -15.636780     2A    -15.635372     3A    -15.592866  
       4A    -15.591493     5A    -11.280432     6A    -11.279042  
       7A    -11.238341     8A    -11.236981     9A    -11.210414  
      10A    -11.209065    11A     -1.387556    12A     -1.386080  
      13A     -1.122456    14A     -1.121066    15A     -1.067467  
      16A     -1.066065    17A     -0.873315    18A     -0.871938  
      19A     -0.837596    20A     -0.836241    21A     -0.757800  
      22A     -0.756440    23A     -0.646301    24A     -0.644919  
      25A     -0.621378    26A     -0.620014    27A     -0.609730  
      28A     -0.608298    29A     -0.584446    30A     -0.583082  
      31A     -0.462003    32A     -0.460589    33A     -0.371280  
      34A     -0.369900    35A     -0.346598    36A     -0.345214  

    Virtual:                                                              

      37A      0.030392    38A      0.031851    39A      0.041847  
      40A      0.043086    41A      0.048588    42A      0.050008  
      43A      0.062963    44A      0.064347    45A      0.100558  
      46A      0.101924    47A      0.103422    48A      0.104855  
      49A      0.116567    50A      0.117903    51A      0.125738  
      52A      0.127100    53A      0.132581    54A      0.133986  
      55A      0.137882    56A      0.139146    57A      0.140973  
      58A      0.142294    59A      0.156422    60A      0.157686  
      61A      0.164063    62A      0.165357    63A      0.170529  
      64A      0.171928    65A      0.177818    66A      0.179213  
      67A      0.195519    68A      0.196978    69A      0.204244  
      70A      0.205583    71A      0.205660    72A      0.207016  
      73A      0.239643    74A      0.241018    75A      0.243076  
      76A      0.244337    77A      0.244466    78A      0.245750  
      79A      0.270519    80A      0.271925    81A      0.278587  
      82A      0.279995    83A      0.300290    84A      0.301726  
      85A      0.324620    86A      0.326007    87A      0.351837  
      88A      0.353235    89A      0.354804    90A      0.356147  
      91A      0.374402    92A      0.375774    93A      0.395554  
      94A      0.396940    95A      0.402218    96A      0.403600  
      97A      0.414510    98A      0.415779    99A      0.431592  
     100A      0.432996   101A      0.442744   102A      0.444173  
     103A      0.452840   104A      0.454221   105A      0.459251  
     106A      0.460644   107A      0.478148   108A      0.479539  
     109A      0.497968   110A      0.499358   111A      0.508130  
     112A      0.509504   113A      0.521446   114A      0.522782  
     115A      0.541023   116A      0.542377   117A      0.573897  
     118A      0.575300   119A      0.585787   120A      0.587161  
     121A      0.590024   122A      0.591381   123A      0.601916  
     124A      0.603267   125A      0.620434   126A      0.621776  
     127A      0.645566   128A      0.646936   129A      0.654785  
     130A      0.656116   131A      0.675627   132A      0.676991  
     133A      0.697488   134A      0.698859   135A      0.699842  
     136A      0.701227   137A      0.721095   138A      0.722507  
     139A      0.724603   140A      0.725962   141A      0.747159  
     142A      0.748542   143A      0.758084   144A      0.759404  
     145A      0.772749   146A      0.774129   147A      0.780932  
     148A      0.782330   149A      0.827918   150A      0.829311  
     151A      0.837705   152A      0.839084   153A      0.847831  
     154A      0.849221   155A      0.880852   156A      0.882203  
     157A      0.888242   158A      0.889614   159A      0.906390  
     160A      0.907770   161A      0.924250   162A      0.925661  
     163A      0.942041   164A      0.943402   165A      0.977647  
     166A      0.979028   167A      0.984300   168A      0.985678  
     169A      1.010557   170A      1.011950   171A      1.046041  
     172A      1.047446   173A      1.065964   174A      1.067332  
     175A      1.100310   176A      1.101714   177A      1.127538  
     178A      1.128868   179A      1.133598   180A      1.135033  
     181A      1.149704   182A      1.151069   183A      1.174611  
     184A      1.175984   185A      1.219959   186A      1.221371  
     187A      1.269021   188A      1.270380   189A      1.302820  
     190A      1.304165   191A      1.310864   192A      1.312239  
     193A      1.365236   194A      1.366630   195A      1.400490  
     196A      1.401858   197A      1.474142   198A      1.475528  
     199A      1.511474   200A      1.512876   201A      1.525586  
     202A      1.526953   203A      1.560419   204A      1.561808  
     205A      1.590365   206A      1.591724   207A      1.608129  
     208A      1.609491   209A      1.636900   210A      1.638255  
     211A      1.668959   212A      1.670297   213A      1.703092  
     214A      1.704480   215A      1.723405   216A      1.724781  
     217A      1.748685   218A      1.750030   219A      1.763824  
     220A      1.765208   221A      1.804462   222A      1.805872  
     223A      1.875061   224A      1.876484   225A      1.931851  
     226A      1.933220   227A      1.943031   228A      1.944380  
     229A      1.987573   230A      1.988873   231A      2.020892  
     232A      2.022272   233A      2.057116   234A      2.058442  
     235A      2.088278   236A      2.089689   237A      2.144155  
     238A      2.145519   239A      2.189465   240A      2.190842  
     241A      2.200273   242A      2.201644   243A      2.229907  
     244A      2.231300   245A      2.275272   246A      2.276631  
     247A      2.307097   248A      2.308485   249A      2.360087  
     250A      2.361537   251A      2.388564   252A      2.389965  
     253A      2.393222   254A      2.394704   255A      2.434639  
     256A      2.436090   257A      2.464398   258A      2.465834  
     259A      2.531233   260A      2.532627   261A      2.569638  
     262A      2.571061   263A      2.584275   264A      2.585579  
     265A      2.642412   266A      2.643806   267A      2.732484  
     268A      2.733889   269A      2.826240   270A      2.827658  
     271A      2.834146   272A      2.835575   273A      2.900984  
     274A      2.902429   275A      2.918017   276A      2.919453  
     277A      2.998652   278A      2.999992   279A      3.054762  
     280A      3.056168   281A      3.091868   282A      3.093187  
     283A      3.122152   284A      3.123566   285A      3.188437  
     286A      3.189740   287A      3.221481   288A      3.222835  
     289A      3.297339   290A      3.298686   291A      3.379693  
     292A      3.381076   293A      3.520205   294A      3.521564  
     295A      3.685743   296A      3.687386   297A      3.888690  
     298A      3.890172   299A      4.208738   300A      4.210254  
     301A      4.462488   302A      4.464057  

    Final Occupation by Irrep:
              A 
    DOCC [    36 ]

  @DF-RHF Final Energy:  -449.52482185121556

   => Energetics <=

    Nuclear Repulsion Energy =            373.7413297230705780
    One-Electron Energy =               -1347.9951905469970370
    Two-Electron Energy =                 524.7290389727110096
    Total Energy =                       -449.5248218512155063

Computation Completed


Properties will be evaluated at   0.000000,   0.000000,   0.000000 [a0]

Properties computed using the SCF density matrix

  Nuclear Dipole Moment: [e a0]
     X:   603.9244      Y:  -216.7344      Z:  1163.4792

  Electronic Dipole Moment: [e a0]
     X:  -604.0349      Y:   216.8016      Z: -1162.1926

  Dipole Moment: [e a0]
     X:    -0.1104      Y:     0.0672      Z:     1.2867     Total:     1.2932

  Dipole Moment: [D]
     X:    -0.2807      Y:     0.1707      Z:     3.2704     Total:     3.2869


*** tstop() called on ds1 at Mon Oct  4 15:34:25 2021
Module time:
	user time   =      22.58 seconds =       0.38 minutes
	system time =       0.56 seconds =       0.01 minutes
	total time  =          4 seconds =       0.07 minutes
Total time:
	user time   =      22.58 seconds =       0.38 minutes
	system time =       0.56 seconds =       0.01 minutes
	total time  =          4 seconds =       0.07 minutes

  //>>>>>>>>>>>>>>>>>>>>>>>>>>>>>>>>>>>//
  //            Monomer A HF           //
  //<<<<<<<<<<<<<<<<<<<<<<<<<<<<<<<<<<<//


*** tstart() called on ds1
*** at Mon Oct  4 15:34:25 2021

   => Loading Basis Set <=

    Name: AUG-CC-PVDZ
    Role: ORBITAL
    Keyword: BASIS
    atoms 1-2, 10-11 entry N          line   218 file /theoryfs2/ds/csargent/miniconda3/envs/cle/share/psi4/basis/aug-cc-pvdz.gbs 
    atoms 3-6, 12-15 entry H          line    40 file /theoryfs2/ds/csargent/miniconda3/envs/cle/share/psi4/basis/aug-cc-pvdz.gbs 
    atoms 7-9, 16-18 entry C          line   182 file /theoryfs2/ds/csargent/miniconda3/envs/cle/share/psi4/basis/aug-cc-pvdz.gbs 


         ---------------------------------------------------------
                                   SCF
               by Justin Turney, Rob Parrish, Andy Simmonett
                          and Daniel G. A. Smith
                              RHF Reference
                        6 Threads,   6675 MiB Core
         ---------------------------------------------------------

  ==> Geometry <==

    Molecular point group: c1
    Full point group: C1

    Geometry (in Bohr), charge = 0, multiplicity = 1:

       Center              X                  Y                   Z               Mass       
    ------------   -----------------  -----------------  -----------------  -----------------
         N            6.279812100000    -4.253033720000     0.193138650000    14.003074004430
         N            6.068707770000    -2.281256970000     1.805443170000    14.003074004430
         H            3.668711560000    -5.646289410000    -1.966840010000     1.007825032230
         H            0.690345210000    -2.375456940000    -0.428642360000     1.007825032230
         H            3.359174420000     0.176506010000     3.092650170000     1.007825032230
         H            7.352667820000    -1.994613110000     2.906807020000     1.007825032230
         C            3.779525860000    -1.215084530000     1.768581720000    12.000000000000
         C            2.382429980000    -2.555055380000     0.046076810000    12.000000000000
         C            4.017714680000    -4.384104900000    -0.887618630000    12.000000000000
      Gh(N)          10.536566840000    -2.293388780000    30.456006220000    14.003074004430
      Gh(N)          10.655429100000    -4.331295820000    31.993179940000    14.003074004430
      Gh(H)          13.209729570000     0.107521180000    29.737975870000     1.007825032230
      Gh(H)          16.104366130000    -2.335017560000    32.493113370000     1.007825032230
      Gh(H)          13.167942060000    -6.048066570000    34.397749680000     1.007825032230
      Gh(H)           9.193020890000    -5.141272880000    32.378945270000     1.007825032230
      Gh(C)          12.938265500000    -4.661471490000    33.022228790000    12.000000000000
      Gh(C)          14.421257940000    -2.731799270000    32.132306320000    12.000000000000
      Gh(C)          12.859952610000    -1.346631460000    30.540608370000    12.000000000000

  Running in c1 symmetry.

  Rotational constants: A =      0.02883  B =      0.00075  C =      0.00074 [cm^-1]
  Rotational constants: A =    864.32923  B =     22.60171  C =     22.15774 [MHz]
  Nuclear repulsion =  166.624056450327203

  Charge       = 0
  Multiplicity = 1
  Electrons    = 36
  Nalpha       = 18
  Nbeta        = 18

  ==> Algorithm <==

  SCF Algorithm Type is DF.
  DIIS enabled.
  MOM disabled.
  Fractional occupation disabled.
  Guess Type is SAD.
  Energy threshold   = 1.00e-10
  Density threshold  = 1.00e-10
  Integral threshold = 1.00e-12

  ==> Primary Basis <==

  Basis Set: AUG-CC-PVDZ
    Blend: AUG-CC-PVDZ
    Number of shells: 130
    Number of basis functions: 302
    Number of Cartesian functions: 322
    Spherical Harmonics?: true
    Max angular momentum: 2

   => Loading Basis Set <=

    Name: (AUG-CC-PVDZ AUX)
    Role: JKFIT
    Keyword: DF_BASIS_SCF
    atoms 1-2, 10-11 entry N          line   212 file /theoryfs2/ds/csargent/miniconda3/envs/cle/share/psi4/basis/aug-cc-pvdz-jkfit.gbs 
    atoms 3-6, 12-15 entry H          line    70 file /theoryfs2/ds/csargent/miniconda3/envs/cle/share/psi4/basis/aug-cc-pvdz-jkfit.gbs 
    atoms 7-9, 16-18 entry C          line   154 file /theoryfs2/ds/csargent/miniconda3/envs/cle/share/psi4/basis/aug-cc-pvdz-jkfit.gbs 

  ==> Integral Setup <==

  ==> DiskDFJK: Density-Fitted J/K Matrices <==

    J tasked:                  Yes
    K tasked:                  Yes
    wK tasked:                  No
    OpenMP threads:              6
    Integrals threads:           6
    Memory [MiB]:             5006
    Algorithm:                Core
    Integral Cache:           LOAD
    Schwarz Cutoff:          1E-12
    Fitting Condition:       1E-10

   => Auxiliary Basis Set <=

  Basis Set: (AUG-CC-PVDZ AUX)
    Blend: AUG-CC-PVDZ-JKFIT
    Number of shells: 376
    Number of basis functions: 1116
    Number of Cartesian functions: 1290
    Spherical Harmonics?: true
    Max angular momentum: 3

  Minimum eigenvalue in the overlap matrix is 3.0324466697E-05.
  Reciprocal condition number of the overlap matrix is 2.4867197170E-06.
    Using symmetric orthogonalization.

  ==> Pre-Iterations <==

  SCF Guess: Superposition of Atomic Densities via on-the-fly atomic UHF (no occupation information).

   -------------------------
    Irrep   Nso     Nmo    
   -------------------------
     A        302     302 
   -------------------------
    Total     302     302
   -------------------------

  ==> Iterations <==

                           Total Energy        Delta E     RMS |[F,P]|

   @DF-RHF iter SAD:  -224.72194801284968   -2.24722e+02   0.00000e+00 
   @DF-RHF iter   1:  -224.63549170035083    8.64563e-02   1.50472e-03 DIIS
   @DF-RHF iter   2:  -224.73984613315449   -1.04354e-01   6.88462e-04 DIIS
   @DF-RHF iter   3:  -224.76075487198329   -2.09087e-02   1.48626e-04 DIIS
   @DF-RHF iter   4:  -224.76213931576410   -1.38444e-03   6.05310e-05 DIIS
   @DF-RHF iter   5:  -224.76231767052224   -1.78355e-04   1.19893e-05 DIIS
   @DF-RHF iter   6:  -224.76233462799684   -1.69575e-05   4.96772e-06 DIIS
   @DF-RHF iter   7:  -224.76233858403430   -3.95604e-06   2.18806e-06 DIIS
   @DF-RHF iter   8:  -224.76233934477662   -7.60742e-07   1.01700e-06 DIIS
   @DF-RHF iter   9:  -224.76233951241895   -1.67642e-07   2.83302e-07 DIIS
   @DF-RHF iter  10:  -224.76233952123980   -8.82085e-09   8.55547e-08 DIIS
   @DF-RHF iter  11:  -224.76233952192894   -6.89141e-10   1.99714e-08 DIIS
   @DF-RHF iter  12:  -224.76233952197569   -4.67537e-11   5.81092e-09 DIIS
   @DF-RHF iter  13:  -224.76233952197970   -4.00746e-12   2.83097e-09 DIIS
   @DF-RHF iter  14:  -224.76233952198035   -6.53699e-13   9.75191e-10 DIIS
   @DF-RHF iter  15:  -224.76233952198072   -3.69482e-13   4.15548e-10 DIIS
   @DF-RHF iter  16:  -224.76233952198086   -1.42109e-13   1.25998e-10 DIIS
   @DF-RHF iter  17:  -224.76233952198064    2.27374e-13   4.47780e-11 DIIS
  Energy and wave function converged.


  ==> Post-Iterations <==

    Orbital Energies [Eh]
    ---------------------

    Doubly Occupied:                                                      

       1A    -15.636223     2A    -15.592313     3A    -11.279894  
       4A    -11.237784     5A    -11.209891     6A     -1.386922  
       7A     -1.121901     8A     -1.066898     9A     -0.872768  
      10A     -0.837061    11A     -0.757292    12A     -0.645746  
      13A     -0.620834    14A     -0.609140    15A     -0.583920  
      16A     -0.461404    17A     -0.370721    18A     -0.346048  

    Virtual:                                                              

      19A      0.022180    20A      0.030764    21A      0.039489  
      22A      0.042368    23A      0.043672    24A      0.049159  
      25A      0.063520    26A      0.065410    27A      0.083481  
      28A      0.090196    29A      0.098394    30A      0.100998  
      31A      0.104029    32A      0.117179    33A      0.117836  
      34A      0.125322    35A      0.126270    36A      0.127831  
      37A      0.132861    38A      0.133069    39A      0.133672  
      40A      0.138403    41A      0.141490    42A      0.156889  
      43A      0.158012    44A      0.164592    45A      0.165485  
      46A      0.171075    47A      0.178407    48A      0.178712  
      49A      0.194981    50A      0.196042    51A      0.200939  
      52A      0.204793    53A      0.206162    54A      0.222375  
      55A      0.224608    56A      0.227701    57A      0.235058  
      58A      0.240236    59A      0.243626    60A      0.244965  
      61A      0.263454    62A      0.270538    63A      0.271127  
      64A      0.279080    65A      0.301010    66A      0.321348  
      67A      0.325148    68A      0.339625    69A      0.352358  
      70A      0.355357    71A      0.366029    72A      0.372393  
      73A      0.374907    74A      0.383226    75A      0.396061  
      76A      0.402741    77A      0.414998    78A      0.427024  
      79A      0.431579    80A      0.432132    81A      0.440726  
      82A      0.441906    83A      0.443385    84A      0.453393  
      85A      0.455517    86A      0.456924    87A      0.459816  
      88A      0.461380    89A      0.478655    90A      0.498543  
      91A      0.508690    92A      0.509257    93A      0.518957  
      94A      0.521917    95A      0.532661    96A      0.537527  
      97A      0.541560    98A      0.558845    99A      0.568368  
     100A      0.571366   101A      0.574432   102A      0.586318  
     103A      0.590538   104A      0.594675   105A      0.602413  
     106A      0.612871   107A      0.620748   108A      0.620953  
     109A      0.633044   110A      0.646110   111A      0.655295  
     112A      0.676162   113A      0.690333   114A      0.698041  
     115A      0.700391   116A      0.707287   117A      0.718985  
     118A      0.721667   119A      0.725115   120A      0.735221  
     121A      0.744865   122A      0.747709   123A      0.758592  
     124A      0.773318   125A      0.781481   126A      0.789165  
     127A      0.797661   128A      0.813966   129A      0.820417  
     130A      0.828504   131A      0.838230   132A      0.848394  
     133A      0.851499   134A      0.854658   135A      0.870527  
     136A      0.880613   137A      0.881395   138A      0.888767  
     139A      0.895197   140A      0.906950   141A      0.915700  
     142A      0.924815   143A      0.942582   144A      0.951610  
     145A      0.978222   146A      0.984850   147A      0.996709  
     148A      1.011149   149A      1.023704   150A      1.029760  
     151A      1.046606   152A      1.051205   153A      1.066503  
     154A      1.070741   155A      1.080524   156A      1.100852  
     157A      1.107753   158A      1.128058   159A      1.134196  
     160A      1.150235   161A      1.158373   162A      1.165844  
     163A      1.175168   164A      1.184560   165A      1.220548  
     166A      1.221322   167A      1.236661   168A      1.267552  
     169A      1.269556   170A      1.293310   171A      1.303342  
     172A      1.311399   173A      1.314739   174A      1.340259  
     175A      1.365807   176A      1.381417   177A      1.401043  
     178A      1.434597   179A      1.444351   180A      1.474691  
     181A      1.492836   182A      1.506665   183A      1.512027  
     184A      1.526129   185A      1.560989   186A      1.590882  
     187A      1.608669   188A      1.637437   189A      1.669472  
     190A      1.676318   191A      1.688474   192A      1.703634  
     193A      1.723950   194A      1.749215   195A      1.764373  
     196A      1.805048   197A      1.875632   198A      1.932390  
     199A      1.943558   200A      1.988067   201A      2.021445  
     202A      2.040708   203A      2.057611   204A      2.088839  
     205A      2.108767   206A      2.134416   207A      2.144687  
     208A      2.167794   209A      2.190005   210A      2.200827  
     211A      2.216266   212A      2.230457   213A      2.233502  
     214A      2.261505   215A      2.275825   216A      2.277321  
     217A      2.288907   218A      2.307640   219A      2.335290  
     220A      2.360716   221A      2.380173   222A      2.389130  
     223A      2.393822   224A      2.394206   225A      2.435246  
     226A      2.443537   227A      2.464967   228A      2.477935  
     229A      2.499591   230A      2.513304   231A      2.531798  
     232A      2.548500   233A      2.570232   234A      2.584716  
     235A      2.630962   236A      2.642961   237A      2.667190  
     238A      2.702692   239A      2.718539   240A      2.733029  
     241A      2.826838   242A      2.827567   243A      2.834751  
     244A      2.869494   245A      2.889683   246A      2.901587  
     247A      2.918598   248A      2.944712   249A      2.999157  
     250A      3.027628   251A      3.055324   252A      3.089393  
     253A      3.092358   254A      3.122730   255A      3.139688  
     256A      3.181512   257A      3.188930   258A      3.222008  
     259A      3.253782   260A      3.288716   261A      3.297865  
     262A      3.355293   263A      3.380235   264A      3.395240  
     265A      3.423069   266A      3.447825   267A      3.486845  
     268A      3.497214   269A      3.520727   270A      3.633190  
     271A      3.666597   272A      3.686563   273A      3.735264  
     274A      3.769755   275A      3.850806   276A      3.889327  
     277A      3.964201   278A      4.035252   279A      4.094405  
     280A      4.209428   281A      4.243727   282A      4.447871  
     283A      4.463235   284A      4.658066   285A      4.707808  
     286A      4.749604   287A      4.810483   288A      4.994495  
     289A      5.076348   290A      5.240897   291A      5.531104  
     292A      5.668669   293A      5.826324   294A      6.106657  
     295A      6.317851   296A      6.707207   297A      6.967142  
     298A     18.110830   299A     18.647705   300A     19.373379  
     301A     25.245034   302A     25.704974  

    Final Occupation by Irrep:
              A 
    DOCC [    18 ]

  @DF-RHF Final Energy:  -224.76233952198064

   => Energetics <=

    Nuclear Repulsion Energy =            166.6240564503272026
    One-Electron Energy =                -633.4992733894822550
    Two-Electron Energy =                 242.1128774171744169
    Total Energy =                       -224.7623395219806355

Computation Completed


Properties will be evaluated at   0.000000,   0.000000,   0.000000 [a0]

Properties computed using the SCF density matrix

  Nuclear Dipole Moment: [e a0]
     X:   162.5886      Y:  -104.5054      Z:    23.1563

  Electronic Dipole Moment: [e a0]
     X:  -162.9913      Y:   105.1370      Z:   -22.5767

  Dipole Moment: [e a0]
     X:    -0.4027      Y:     0.6317      Z:     0.5796     Total:     0.9472

  Dipole Moment: [D]
     X:    -1.0235      Y:     1.6055      Z:     1.4733     Total:     2.4075


*** tstop() called on ds1 at Mon Oct  4 15:34:29 2021
Module time:
	user time   =      16.26 seconds =       0.27 minutes
	system time =       0.31 seconds =       0.01 minutes
	total time  =          4 seconds =       0.07 minutes
Total time:
	user time   =      38.88 seconds =       0.65 minutes
	system time =       0.87 seconds =       0.01 minutes
	total time  =          8 seconds =       0.13 minutes

  //>>>>>>>>>>>>>>>>>>>>>>>>>>>>>>>>>>>//
  //            Monomer B HF           //
  //<<<<<<<<<<<<<<<<<<<<<<<<<<<<<<<<<<<//


*** tstart() called on ds1
*** at Mon Oct  4 15:34:29 2021

   => Loading Basis Set <=

    Name: AUG-CC-PVDZ
    Role: ORBITAL
    Keyword: BASIS
    atoms 1-2, 10-11 entry N          line   218 file /theoryfs2/ds/csargent/miniconda3/envs/cle/share/psi4/basis/aug-cc-pvdz.gbs 
    atoms 3-6, 12-15 entry H          line    40 file /theoryfs2/ds/csargent/miniconda3/envs/cle/share/psi4/basis/aug-cc-pvdz.gbs 
    atoms 7-9, 16-18 entry C          line   182 file /theoryfs2/ds/csargent/miniconda3/envs/cle/share/psi4/basis/aug-cc-pvdz.gbs 


         ---------------------------------------------------------
                                   SCF
               by Justin Turney, Rob Parrish, Andy Simmonett
                          and Daniel G. A. Smith
                              RHF Reference
                        6 Threads,   6675 MiB Core
         ---------------------------------------------------------

  ==> Geometry <==

    Molecular point group: c1
    Full point group: C1

    Geometry (in Bohr), charge = 0, multiplicity = 1:

       Center              X                  Y                   Z               Mass       
    ------------   -----------------  -----------------  -----------------  -----------------
      Gh(N)           6.279812100000    -4.253033720000     0.193138650000    14.003074004430
      Gh(N)           6.068707770000    -2.281256970000     1.805443170000    14.003074004430
      Gh(H)           3.668711560000    -5.646289410000    -1.966840010000     1.007825032230
      Gh(H)           0.690345210000    -2.375456940000    -0.428642360000     1.007825032230
      Gh(H)           3.359174420000     0.176506010000     3.092650170000     1.007825032230
      Gh(H)           7.352667820000    -1.994613110000     2.906807020000     1.007825032230
      Gh(C)           3.779525860000    -1.215084530000     1.768581720000    12.000000000000
      Gh(C)           2.382429980000    -2.555055380000     0.046076810000    12.000000000000
      Gh(C)           4.017714680000    -4.384104900000    -0.887618630000    12.000000000000
         N           10.536566840000    -2.293388780000    30.456006220000    14.003074004430
         N           10.655429100000    -4.331295820000    31.993179940000    14.003074004430
         H           13.209729570000     0.107521180000    29.737975870000     1.007825032230
         H           16.104366130000    -2.335017560000    32.493113370000     1.007825032230
         H           13.167942060000    -6.048066570000    34.397749680000     1.007825032230
         H            9.193020890000    -5.141272880000    32.378945270000     1.007825032230
         C           12.938265500000    -4.661471490000    33.022228790000    12.000000000000
         C           14.421257940000    -2.731799270000    32.132306320000    12.000000000000
         C           12.859952610000    -1.346631460000    30.540608370000    12.000000000000

  Running in c1 symmetry.

  Rotational constants: A =      0.02883  B =      0.00075  C =      0.00074 [cm^-1]
  Rotational constants: A =    864.32923  B =     22.60171  C =     22.15774 [MHz]
  Nuclear repulsion =  166.628602768744088

  Charge       = 0
  Multiplicity = 1
  Electrons    = 36
  Nalpha       = 18
  Nbeta        = 18

  ==> Algorithm <==

  SCF Algorithm Type is DF.
  DIIS enabled.
  MOM disabled.
  Fractional occupation disabled.
  Guess Type is SAD.
  Energy threshold   = 1.00e-10
  Density threshold  = 1.00e-10
  Integral threshold = 1.00e-12

  ==> Primary Basis <==

  Basis Set: AUG-CC-PVDZ
    Blend: AUG-CC-PVDZ
    Number of shells: 130
    Number of basis functions: 302
    Number of Cartesian functions: 322
    Spherical Harmonics?: true
    Max angular momentum: 2

   => Loading Basis Set <=

    Name: (AUG-CC-PVDZ AUX)
    Role: JKFIT
    Keyword: DF_BASIS_SCF
    atoms 1-2, 10-11 entry N          line   212 file /theoryfs2/ds/csargent/miniconda3/envs/cle/share/psi4/basis/aug-cc-pvdz-jkfit.gbs 
    atoms 3-6, 12-15 entry H          line    70 file /theoryfs2/ds/csargent/miniconda3/envs/cle/share/psi4/basis/aug-cc-pvdz-jkfit.gbs 
    atoms 7-9, 16-18 entry C          line   154 file /theoryfs2/ds/csargent/miniconda3/envs/cle/share/psi4/basis/aug-cc-pvdz-jkfit.gbs 

  ==> Integral Setup <==

  ==> DiskDFJK: Density-Fitted J/K Matrices <==

    J tasked:                  Yes
    K tasked:                  Yes
    wK tasked:                  No
    OpenMP threads:              6
    Integrals threads:           6
    Memory [MiB]:             5006
    Algorithm:                Core
    Integral Cache:           LOAD
    Schwarz Cutoff:          1E-12
    Fitting Condition:       1E-10

   => Auxiliary Basis Set <=

  Basis Set: (AUG-CC-PVDZ AUX)
    Blend: AUG-CC-PVDZ-JKFIT
    Number of shells: 376
    Number of basis functions: 1116
    Number of Cartesian functions: 1290
    Spherical Harmonics?: true
    Max angular momentum: 3

  Minimum eigenvalue in the overlap matrix is 3.0324466697E-05.
  Reciprocal condition number of the overlap matrix is 2.4867197170E-06.
    Using symmetric orthogonalization.

  ==> Pre-Iterations <==

  SCF Guess: Superposition of Atomic Densities via on-the-fly atomic UHF (no occupation information).

   -------------------------
    Irrep   Nso     Nmo    
   -------------------------
     A        302     302 
   -------------------------
    Total     302     302
   -------------------------

  ==> Iterations <==

                           Total Energy        Delta E     RMS |[F,P]|

   @DF-RHF iter SAD:  -224.72250854029170   -2.24723e+02   0.00000e+00 
   @DF-RHF iter   1:  -224.63556595888235    8.69426e-02   1.50490e-03 DIIS
   @DF-RHF iter   2:  -224.73993304658592   -1.04367e-01   6.88620e-04 DIIS
   @DF-RHF iter   3:  -224.76085080006305   -2.09178e-02   1.48614e-04 DIIS
   @DF-RHF iter   4:  -224.76223499874237   -1.38420e-03   6.05151e-05 DIIS
   @DF-RHF iter   5:  -224.76241324324869   -1.78245e-04   1.19848e-05 DIIS
   @DF-RHF iter   6:  -224.76243017639766   -1.69331e-05   4.96323e-06 DIIS
   @DF-RHF iter   7:  -224.76243412424046   -3.94784e-06   2.18627e-06 DIIS
   @DF-RHF iter   8:  -224.76243488377941   -7.59539e-07   1.01631e-06 DIIS
   @DF-RHF iter   9:  -224.76243505128440   -1.67505e-07   2.83280e-07 DIIS
   @DF-RHF iter  10:  -224.76243506010198   -8.81758e-09   8.55270e-08 DIIS
   @DF-RHF iter  11:  -224.76243506079126   -6.89283e-10   1.99678e-08 DIIS
   @DF-RHF iter  12:  -224.76243506083705   -4.57874e-11   5.80973e-09 DIIS
   @DF-RHF iter  13:  -224.76243506084174   -4.68958e-12   2.83582e-09 DIIS
   @DF-RHF iter  14:  -224.76243506084256   -8.24230e-13   9.79832e-10 DIIS
   @DF-RHF iter  15:  -224.76243506084307   -5.11591e-13   4.16537e-10 DIIS
   @DF-RHF iter  16:  -224.76243506084302    5.68434e-14   1.25808e-10 DIIS
   @DF-RHF iter  17:  -224.76243506084290    1.13687e-13   4.47604e-11 DIIS
  Energy and wave function converged.


  ==> Post-Iterations <==

    Orbital Energies [Eh]
    ---------------------

    Doubly Occupied:                                                      

       1A    -15.636233     2A    -15.592291     3A    -11.279903  
       4A    -11.237759     5A    -11.209884     6A     -1.387001  
       7A     -1.121894     8A     -1.066928     9A     -0.872759  
      10A     -0.837039    11A     -0.757272    12A     -0.645745  
      13A     -0.620828    14A     -0.609177    15A     -0.583905  
      16A     -0.461413    17A     -0.370715    18A     -0.346055  

    Virtual:                                                              

      19A      0.023544    20A      0.030764    21A      0.040919  
      22A      0.042369    23A      0.044986    24A      0.049158  
      25A      0.063519    26A      0.066794    27A      0.084825  
      28A      0.091613    29A      0.099792    30A      0.101001  
      31A      0.104028    32A      0.117186    33A      0.119165  
      34A      0.126272    35A      0.126679    36A      0.129111  
      37A      0.133070    38A      0.134205    39A      0.135009  
      40A      0.138399    41A      0.141487    42A      0.156889  
      43A      0.159317    44A      0.164594    45A      0.166833  
      46A      0.171081    47A      0.178407    48A      0.180068  
      49A      0.196040    50A      0.196392    51A      0.202431  
      52A      0.204806    53A      0.206166    54A      0.223823  
      55A      0.225979    56A      0.229080    57A      0.236462  
      58A      0.240240    59A      0.243627    60A      0.244965  
      61A      0.264863    62A      0.271138    63A      0.271951  
      64A      0.279081    65A      0.301024    66A      0.322755  
      67A      0.325138    68A      0.340978    69A      0.352355  
      70A      0.355359    71A      0.367419    72A      0.373730  
      73A      0.374909    74A      0.384586    75A      0.396062  
      76A      0.402744    77A      0.415005    78A      0.428395  
      79A      0.432131    80A      0.432947    81A      0.442027  
      82A      0.443202    83A      0.443379    84A      0.453414  
      85A      0.456921    86A      0.458293    87A      0.459816  
      88A      0.462782    89A      0.478656    90A      0.498544  
      91A      0.508693    92A      0.510642    93A      0.520370  
      94A      0.521953    95A      0.534082    96A      0.538886  
      97A      0.541569    98A      0.560207    99A      0.569804  
     100A      0.572701   101A      0.574428   102A      0.586322  
     103A      0.590547   104A      0.596043   105A      0.602431  
     106A      0.614204   107A      0.620974   108A      0.622132  
     109A      0.634404   110A      0.646111   111A      0.655304  
     112A      0.676168   113A      0.691727   114A      0.698039  
     115A      0.700384   116A      0.708681   117A      0.720341  
     118A      0.721648   119A      0.725121   120A      0.736578  
     121A      0.746205   122A      0.747717   123A      0.758643  
     124A      0.773300   125A      0.781476   126A      0.790557  
     127A      0.799044   128A      0.815317   129A      0.821776  
     130A      0.828513   131A      0.838238   132A      0.848382  
     133A      0.852810   134A      0.856027   135A      0.871884  
     136A      0.881397   137A      0.881952   138A      0.888762  
     139A      0.896575   140A      0.906950   141A      0.917066  
     142A      0.924803   143A      0.942599   144A      0.952995  
     145A      0.978204   146A      0.984853   147A      0.998087  
     148A      1.011170   149A      1.025071   150A      1.031175  
     151A      1.046624   152A      1.052609   153A      1.066503  
     154A      1.072069   155A      1.081864   156A      1.100853  
     157A      1.109138   158A      1.128099   159A      1.134152  
     160A      1.150240   161A      1.159768   162A      1.167237  
     163A      1.175167   164A      1.185925   165A      1.220538  
     166A      1.222731   167A      1.238033   168A      1.268964  
     169A      1.269573   170A      1.294726   171A      1.303390  
     172A      1.311431   173A      1.316114   174A      1.341654  
     175A      1.365802   176A      1.382797   177A      1.401039  
     178A      1.436002   179A      1.445733   180A      1.474706  
     181A      1.494251   182A      1.508037   183A      1.512021  
     184A      1.526136   185A      1.560976   186A      1.590889  
     187A      1.608679   188A      1.637435   189A      1.669494  
     190A      1.677727   191A      1.689909   192A      1.703636  
     193A      1.723957   194A      1.749249   195A      1.764367  
     196A      1.805025   197A      1.875589   198A      1.932406  
     199A      1.943562   200A      1.988139   201A      2.021453  
     202A      2.042040   203A      2.057662   204A      2.088810  
     205A      2.110109   206A      2.135810   207A      2.144708  
     208A      2.169084   209A      2.189999   210A      2.200828  
     211A      2.217641   212A      2.230454   213A      2.234828  
     214A      2.262846   215A      2.275832   216A      2.278700  
     217A      2.290255   218A      2.307637   219A      2.336723  
     220A      2.360646   221A      2.381512   222A      2.389121  
     223A      2.393758   224A      2.395557   225A      2.435199  
     226A      2.444893   227A      2.464942   228A      2.479307  
     229A      2.500863   230A      2.514692   231A      2.531785  
     232A      2.549822   233A      2.570195   234A      2.584820  
     235A      2.632338   236A      2.642959   237A      2.668555  
     238A      2.704066   239A      2.719907   240A      2.733013  
     241A      2.826807   242A      2.828897   243A      2.834707  
     244A      2.870881   245A      2.891040   246A      2.901543  
     247A      2.918563   248A      2.946142   249A      2.999195  
     250A      3.029081   251A      3.055311   252A      3.090853  
     253A      3.092440   254A      3.122703   255A      3.141024  
     256A      3.182980   257A      3.189011   258A      3.222030  
     259A      3.255157   260A      3.290190   261A      3.297913  
     262A      3.356797   263A      3.380219   264A      3.396611  
     265A      3.424561   266A      3.449286   267A      3.488176  
     268A      3.498507   269A      3.520764   270A      3.634545  
     271A      3.667971   272A      3.686295   273A      3.736622  
     274A      3.771120   275A      3.852237   276A      3.889250  
     277A      3.965408   278A      4.036549   279A      4.095790  
     280A      4.209312   281A      4.245119   282A      4.449440  
     283A      4.463032   284A      4.659426   285A      4.709091  
     286A      4.750947   287A      4.811816   288A      4.995887  
     289A      5.077835   290A      5.242481   291A      5.532262  
     292A      5.670008   293A      5.827904   294A      6.107723  
     295A      6.319299   296A      6.709374   297A      6.968916  
     298A     18.112168   299A     18.648862   300A     19.374606  
     301A     25.246576   302A     25.706019  

    Final Occupation by Irrep:
              A 
    DOCC [    18 ]

  @DF-RHF Final Energy:  -224.76243506084290

   => Energetics <=

    Nuclear Repulsion Energy =            166.6286027687440878
    One-Electron Energy =                -633.5084733192917383
    Two-Electron Energy =                 242.1174354897047465
    Total Energy =                       -224.7624350608429040

Computation Completed


Properties will be evaluated at   0.000000,   0.000000,   0.000000 [a0]

Properties computed using the SCF density matrix

  Nuclear Dipole Moment: [e a0]
     X:   441.3359      Y:  -112.2290      Z:  1140.3229

  Electronic Dipole Moment: [e a0]
     X:  -441.0450      Y:   111.6650      Z: -1139.6198

  Dipole Moment: [e a0]
     X:     0.2909      Y:    -0.5640      Z:     0.7031     Total:     0.9472

  Dipole Moment: [D]
     X:     0.7394      Y:    -1.4336      Z:     1.7871     Total:     2.4074


*** tstop() called on ds1 at Mon Oct  4 15:34:33 2021
Module time:
	user time   =      15.95 seconds =       0.27 minutes
	system time =       0.34 seconds =       0.01 minutes
	total time  =          4 seconds =       0.07 minutes
Total time:
	user time   =      55.06 seconds =       0.92 minutes
	system time =       1.21 seconds =       0.02 minutes
	total time  =         12 seconds =       0.20 minutes
  Constructing Basis Sets for SAPT...

   => Loading Basis Set <=

    Name: (AUG-CC-PVDZ AUX)
    Role: RIFIT
    Keyword: DF_BASIS_SAPT
    atoms 1-2, 10-11 entry N          line   158 file /theoryfs2/ds/csargent/miniconda3/envs/cle/share/psi4/basis/aug-cc-pvdz-ri.gbs 
    atoms 3-6, 12-15 entry H          line    30 file /theoryfs2/ds/csargent/miniconda3/envs/cle/share/psi4/basis/aug-cc-pvdz-ri.gbs 
    atoms 7-9, 16-18 entry C          line   112 file /theoryfs2/ds/csargent/miniconda3/envs/cle/share/psi4/basis/aug-cc-pvdz-ri.gbs 


  //>>>>>>>>>>>>>>>>>>>>>>>>>>>>>>>>>>>//
  //               SAPT0               //
  //<<<<<<<<<<<<<<<<<<<<<<<<<<<<<<<<<<<//


*** tstart() called on ds1
*** at Mon Oct  4 15:34:33 2021

        SAPT0  
    Ed Hohenstein
     6 June 2009

      Orbital Information
  --------------------------
    NSO        =       302
    NMO        =       302
    NRI        =       904
    NOCC A     =        18
    NOCC B     =        18
    FOCC A     =         5
    FOCC B     =         5
    NVIR A     =       284
    NVIR B     =       284

    Elst10,r            =    -0.000047194747 [Eh]
    Exch10              =     0.000000000000 [Eh]
    Exch10 (S^2)        =     0.000000000000 [Eh]

    Iter     Energy [mEh]          dE [mEh]         Residual      Time [s]
       1      -0.00007262       0.000072619       0.090020702             0
       2      -0.00006657      -0.000006053       0.021638538             0
       3      -0.00007239       0.000005821       0.008845790             0
       4      -0.00007346       0.000001073       0.002451113             0
       5      -0.00007326      -0.000000200       0.001347960             0
       6      -0.00007318      -0.000000082       0.000479015             0
       7      -0.00007320       0.000000024       0.000197321             1
       8      -0.00007321       0.000000009       0.000086171             1
       9      -0.00007321       0.000000000       0.000023314             1
      10      -0.00007321      -0.000000002       0.000005262             1
      11      -0.00007321       0.000000000       0.000002131             1
      12      -0.00007321       0.000000000       0.000000576             1

    CHF Iterations converged


    Iter     Energy [mEh]          dE [mEh]         Residual      Time [s]
       1      -0.00005590       0.000055900       0.084079782             0
       2      -0.00005130      -0.000004596       0.020081118             0
       3      -0.00005714       0.000005841       0.007594886             1
       4      -0.00005765       0.000000510       0.002680092             1
       5      -0.00005747      -0.000000187       0.001497331             1
       6      -0.00005742      -0.000000049       0.000619512             1
       7      -0.00005743       0.000000015       0.000212183             1
       8      -0.00005744       0.000000011       0.000059833             1
       9      -0.00005744      -0.000000000       0.000017655             1
      10      -0.00005744      -0.000000001       0.000004181             1
      11      -0.00005744       0.000000000       0.000001227             2
      12      -0.00005744       0.000000000       0.000000265             2

    CHF Iterations converged

    Ind20,r (A<-B)      =    -0.000000073209 [Eh]
    Ind20,r (B<-A)      =    -0.000000057443 [Eh]
    Ind20,r             =    -0.000000130652 [Eh]
    Exch-Ind20,r (A<-B) =     0.000000000000 [Eh]
    Exch-Ind20,r (B<-A) =     0.000000000000 [Eh]
    Exch-Ind20,r        =     0.000000000000 [Eh]
    Disp20              =    -0.000001050871 [Eh]
    Disp20 (SS)         =    -0.000000525436 [Eh]
    Disp20 (OS)         =    -0.000000525436 [Eh]
    Exch-Disp20         =     0.000000000000 [Eh]
    Exch-Disp20 (SS)    =     0.000000000000 [Eh]
    Exch-Disp20 (OS)    =     0.000000000000 [Eh]

    SAPT Results 
  --------------------------------------------------------------------------------------------------------
    Electrostatics                 -0.04719475 [mEh]      -0.02961515 [kcal/mol]      -0.12390979 [kJ/mol]
      Elst10,r                     -0.04719475 [mEh]      -0.02961515 [kcal/mol]      -0.12390979 [kJ/mol]

    Exchange                        0.00000000 [mEh]       0.00000000 [kcal/mol]       0.00000000 [kJ/mol]
      Exch10                        0.00000000 [mEh]       0.00000000 [kcal/mol]       0.00000000 [kJ/mol]
      Exch10(S^2)                   0.00000000 [mEh]       0.00000000 [kcal/mol]       0.00000000 [kJ/mol]

    Induction                      -0.00007364 [mEh]      -0.00004621 [kcal/mol]      -0.00019335 [kJ/mol]
      Ind20,r                      -0.00013065 [mEh]      -0.00008199 [kcal/mol]      -0.00034303 [kJ/mol]
      Exch-Ind20,r                  0.00000000 [mEh]       0.00000000 [kcal/mol]       0.00000000 [kJ/mol]
      delta HF,r (2)                0.00005701 [mEh]       0.00003577 [kcal/mol]       0.00014967 [kJ/mol]

    Dispersion                     -0.00105087 [mEh]      -0.00065943 [kcal/mol]      -0.00275906 [kJ/mol]
      Disp20                       -0.00105087 [mEh]      -0.00065943 [kcal/mol]      -0.00275906 [kJ/mol]
      Exch-Disp20                   0.00000000 [mEh]       0.00000000 [kcal/mol]       0.00000000 [kJ/mol]
      Disp20 (SS)                  -0.00052544 [mEh]      -0.00032972 [kcal/mol]      -0.00137953 [kJ/mol]
      Disp20 (OS)                  -0.00052544 [mEh]      -0.00032972 [kcal/mol]      -0.00137953 [kJ/mol]
      Exch-Disp20 (SS)              0.00000000 [mEh]       0.00000000 [kcal/mol]       0.00000000 [kJ/mol]
      Exch-Disp20 (OS)              0.00000000 [mEh]       0.00000000 [kcal/mol]       0.00000000 [kJ/mol]

  Total HF                         -0.04726839 [mEh]      -0.02966136 [kcal/mol]      -0.12410315 [kJ/mol]
  Total SAPT0                      -0.04831926 [mEh]      -0.03032080 [kcal/mol]      -0.12686221 [kJ/mol]

  Special recipe for scaled SAPT0 (see Manual):
    Electrostatics sSAPT0          -0.04719475 [mEh]      -0.02961515 [kcal/mol]      -0.12390979 [kJ/mol]
    Exchange sSAPT0                 0.00000000 [mEh]       0.00000000 [kcal/mol]       0.00000000 [kJ/mol]
    Induction sSAPT0               -0.00007364 [mEh]      -0.00004621 [kcal/mol]      -0.00019335 [kJ/mol]
    Dispersion sSAPT0              -0.00105087 [mEh]      -0.00065943 [kcal/mol]      -0.00275906 [kJ/mol]
  Total sSAPT0                     -0.04831926 [mEh]      -0.03032080 [kcal/mol]      -0.12686221 [kJ/mol]
  --------------------------------------------------------------------------------------------------------

*** tstop() called on ds1 at Mon Oct  4 15:34:42 2021
Module time:
	user time   =      45.09 seconds =       0.75 minutes
	system time =       4.02 seconds =       0.07 minutes
	total time  =          9 seconds =       0.15 minutes
Total time:
	user time   =     101.22 seconds =       1.69 minutes
	system time =       5.28 seconds =       0.09 minutes
	total time  =         21 seconds =       0.35 minutes


Warning! sapt0 does not have an associated derived wavefunction.The returned wavefunction is the dimer SCF wavefunction.


    Psi4 stopped on: Monday, 04 October 2021 03:34PM
    Psi4 wall time for execution: 0:00:21.67

*** Psi4 exiting successfully. Buy a developer a beer!
