
    -----------------------------------------------------------------------
          Psi4: An Open-Source Ab Initio Electronic Structure Package
                               Psi4 1.4rc3 

                         Git: Rev {HEAD} 080dba6 


    D. G. A. Smith, L. A. Burns, A. C. Simmonett, R. M. Parrish,
    M. C. Schieber, R. Galvelis, P. Kraus, H. Kruse, R. Di Remigio,
    A. Alenaizan, A. M. James, S. Lehtola, J. P. Misiewicz, M. Scheurer,
    R. A. Shaw, J. B. Schriber, Y. Xie, Z. L. Glick, D. A. Sirianni,
    J. S. O'Brien, J. M. Waldrop, A. Kumar, E. G. Hohenstein,
    B. P. Pritchard, B. R. Brooks, H. F. Schaefer III, A. Yu. Sokolov,
    K. Patkowski, A. E. DePrince III, U. Bozkaya, R. A. King,
    F. A. Evangelista, J. M. Turney, T. D. Crawford, C. D. Sherrill,
    J. Chem. Phys. 152(18) 184108 (2020). https://doi.org/10.1063/5.0006002

                            Additional Code Authors
    E. T. Seidl, C. L. Janssen, E. F. Valeev, M. L. Leininger,
    J. F. Gonthier, R. M. Richard, H. R. McAlexander, M. Saitow, X. Wang,
    P. Verma, and M. H. Lechner

             Previous Authors, Complete List of Code Contributors,
                       and Citations for Specific Modules
    https://github.com/psi4/psi4/blob/master/codemeta.json
    https://github.com/psi4/psi4/graphs/contributors
    http://psicode.org/psi4manual/master/introduction.html#citing-psifour

    -----------------------------------------------------------------------


    Psi4 started on: Monday, 04 October 2021 03:44PM

    Process ID: 13724
    Host:       ds1
    PSIDATADIR: /theoryfs2/ds/csargent/miniconda3/envs/cle/share/psi4
    Memory:     500.0 MiB
    Threads:    6
    
  ==> Input File <==

--------------------------------------------------------------------------
# PSI4 file produced by CrystaLattE

# Generated from:               pyrazole.xyz
# Psithon input for N-mer:      2mer-0+341
# Number of atoms per monomer:  [9, 9]
# Number of replicas:           1
# COM priority:                 3.003587710878e-05
# Minimum COM separations:      17.024 
# Separation priority:          4.651085044376e-05
# Minimum monomer separations:  14.715 
# Cutoff priority:              1.672652436351e-06
# Nuclear repulsion energy:     373.4766183596936

memory 7 GB

molecule Dimer_0_341 {
  N            6.27981210      -4.25303372       0.19313865 
  N            6.06870777      -2.28125697       1.80544317 
  H            3.66871156      -5.64628941      -1.96684001 
  H            0.69034521      -2.37545694      -0.42864236 
  H            3.35917442       0.17650601       3.09265017 
  H            7.35266782      -1.99461311       2.90680702 
  C            3.77952586      -1.21508453       1.76858172 
  C            2.38242998      -2.55505538       0.04607681 
  C            4.01771468      -4.38410490      -0.88761863 
--
  N           33.75185229       2.40090997      -4.81169931 
  N           33.87071455       4.43881700      -6.34887303 
  H           36.42501503       0.00000000      -4.09366896 
  H           39.31965158       2.44253874      -6.84880646 
  H           36.38322751       6.15558776      -8.75344277 
  H           32.40830634       5.24879406      -6.73463836 
  C           36.15355095       4.76899267      -7.37792188 
  C           37.63654339       2.83932046      -6.48799941 
  C           36.07523806       1.45415264      -4.89630146 
units = au
no_com
no_reorient
}

set {
  e_convergence 10
  d_convergence 10
  scf_type df
  mp2_type df
  cc_type df
  freeze_core true
}

energy('sapt0/aug-cc-pvdz')

--------------------------------------------------------------------------

  Memory set to   6.519 GiB by Python driver.

Scratch directory: /scratch/csargent/psi4.7158.66302/

Scratch directory: /scratch/csargent/psi4.7158.66302/

  //>>>>>>>>>>>>>>>>>>>>>>>>>>>>>>>>>>>//
  //              Dimer HF             //
  //<<<<<<<<<<<<<<<<<<<<<<<<<<<<<<<<<<<//


*** tstart() called on ds1
*** at Mon Oct  4 15:44:42 2021

   => Loading Basis Set <=

    Name: AUG-CC-PVDZ
    Role: ORBITAL
    Keyword: BASIS
    atoms 1-2, 10-11 entry N          line   218 file /theoryfs2/ds/csargent/miniconda3/envs/cle/share/psi4/basis/aug-cc-pvdz.gbs 
    atoms 3-6, 12-15 entry H          line    40 file /theoryfs2/ds/csargent/miniconda3/envs/cle/share/psi4/basis/aug-cc-pvdz.gbs 
    atoms 7-9, 16-18 entry C          line   182 file /theoryfs2/ds/csargent/miniconda3/envs/cle/share/psi4/basis/aug-cc-pvdz.gbs 


         ---------------------------------------------------------
                                   SCF
               by Justin Turney, Rob Parrish, Andy Simmonett
                          and Daniel G. A. Smith
                              RHF Reference
                        6 Threads,   6675 MiB Core
         ---------------------------------------------------------

  ==> Geometry <==

    Molecular point group: c1
    Full point group: C1

    Geometry (in Bohr), charge = 0, multiplicity = 1:

       Center              X                  Y                   Z               Mass       
    ------------   -----------------  -----------------  -----------------  -----------------
         N            6.279812100000    -4.253033720000     0.193138650000    14.003074004430
         N            6.068707770000    -2.281256970000     1.805443170000    14.003074004430
         H            3.668711560000    -5.646289410000    -1.966840010000     1.007825032230
         H            0.690345210000    -2.375456940000    -0.428642360000     1.007825032230
         H            3.359174420000     0.176506010000     3.092650170000     1.007825032230
         H            7.352667820000    -1.994613110000     2.906807020000     1.007825032230
         C            3.779525860000    -1.215084530000     1.768581720000    12.000000000000
         C            2.382429980000    -2.555055380000     0.046076810000    12.000000000000
         C            4.017714680000    -4.384104900000    -0.887618630000    12.000000000000
         N           33.751852290000     2.400909970000    -4.811699310000    14.003074004430
         N           33.870714550000     4.438817000000    -6.348873030000    14.003074004430
         H           36.425015030000     0.000000000000    -4.093668960000     1.007825032230
         H           39.319651580000     2.442538740000    -6.848806460000     1.007825032230
         H           36.383227510000     6.155587760000    -8.753442770000     1.007825032230
         H           32.408306340000     5.248794060000    -6.734638360000     1.007825032230
         C           36.153550950000     4.768992670000    -7.377921880000    12.000000000000
         C           37.636543390000     2.839320460000    -6.487999410000    12.000000000000
         C           36.075238060000     1.454152640000    -4.896301460000    12.000000000000

  Running in c1 symmetry.

  Rotational constants: A =      0.04726  B =      0.00067  C =      0.00066 [cm^-1]
  Rotational constants: A =   1416.85600  B =     19.99981  C =     19.79507 [MHz]
  Nuclear repulsion =  373.476618356915083

  Charge       = 0
  Multiplicity = 1
  Electrons    = 72
  Nalpha       = 36
  Nbeta        = 36

  ==> Algorithm <==

  SCF Algorithm Type is DF.
  DIIS enabled.
  MOM disabled.
  Fractional occupation disabled.
  Guess Type is SAD.
  Energy threshold   = 1.00e-10
  Density threshold  = 1.00e-10
  Integral threshold = 1.00e-12

  ==> Primary Basis <==

  Basis Set: AUG-CC-PVDZ
    Blend: AUG-CC-PVDZ
    Number of shells: 130
    Number of basis functions: 302
    Number of Cartesian functions: 322
    Spherical Harmonics?: true
    Max angular momentum: 2

   => Loading Basis Set <=

    Name: (AUG-CC-PVDZ AUX)
    Role: JKFIT
    Keyword: DF_BASIS_SCF
    atoms 1-2, 10-11 entry N          line   212 file /theoryfs2/ds/csargent/miniconda3/envs/cle/share/psi4/basis/aug-cc-pvdz-jkfit.gbs 
    atoms 3-6, 12-15 entry H          line    70 file /theoryfs2/ds/csargent/miniconda3/envs/cle/share/psi4/basis/aug-cc-pvdz-jkfit.gbs 
    atoms 7-9, 16-18 entry C          line   154 file /theoryfs2/ds/csargent/miniconda3/envs/cle/share/psi4/basis/aug-cc-pvdz-jkfit.gbs 

  ==> Integral Setup <==

  ==> DiskDFJK: Density-Fitted J/K Matrices <==

    J tasked:                  Yes
    K tasked:                  Yes
    wK tasked:                  No
    OpenMP threads:              6
    Integrals threads:           6
    Memory [MiB]:             5006
    Algorithm:                Core
    Integral Cache:           SAVE
    Schwarz Cutoff:          1E-12
    Fitting Condition:       1E-10

   => Auxiliary Basis Set <=

  Basis Set: (AUG-CC-PVDZ AUX)
    Blend: AUG-CC-PVDZ-JKFIT
    Number of shells: 376
    Number of basis functions: 1116
    Number of Cartesian functions: 1290
    Spherical Harmonics?: true
    Max angular momentum: 3

  Minimum eigenvalue in the overlap matrix is 3.0324469242E-05.
  Reciprocal condition number of the overlap matrix is 2.4867199300E-06.
    Using symmetric orthogonalization.

  ==> Pre-Iterations <==

  SCF Guess: Superposition of Atomic Densities via on-the-fly atomic UHF (no occupation information).

   -------------------------
    Irrep   Nso     Nmo    
   -------------------------
     A        302     302 
   -------------------------
    Total     302     302
   -------------------------

  ==> Iterations <==

                           Total Energy        Delta E     RMS |[F,P]|

   @DF-RHF iter SAD:  -449.44445656065506   -4.49444e+02   0.00000e+00 
   @DF-RHF iter   1:  -449.27105508899467    1.73401e-01   2.12809e-03 DIIS
   @DF-RHF iter   2:  -449.47976021545338   -2.08705e-01   9.73785e-04 DIIS
   @DF-RHF iter   3:  -449.52158824216019   -4.18280e-02   2.10246e-04 DIIS
   @DF-RHF iter   4:  -449.52435720334495   -2.76896e-03   8.56601e-05 DIIS
   @DF-RHF iter   5:  -449.52471427724379   -3.57074e-04   1.69578e-05 DIIS
   @DF-RHF iter   6:  -449.52474815663390   -3.38794e-05   7.02384e-06 DIIS
   @DF-RHF iter   7:  -449.52475605020828   -7.89357e-06   3.10765e-06 DIIS
   @DF-RHF iter   8:  -449.52475757746311   -1.52725e-06   1.43868e-06 DIIS
   @DF-RHF iter   9:  -449.52475791452247   -3.37059e-07   4.02144e-07 DIIS
   @DF-RHF iter  10:  -449.52475793232412   -1.78017e-08   1.20849e-07 DIIS
   @DF-RHF iter  11:  -449.52475793370775   -1.38363e-09   2.83108e-08 DIIS
   @DF-RHF iter  12:  -449.52475793380171   -9.39622e-11   8.26445e-09 DIIS
   @DF-RHF iter  13:  -449.52475793381075   -9.03810e-12   4.04694e-09 DIIS
   @DF-RHF iter  14:  -449.52475793381177   -1.02318e-12   1.40382e-09 DIIS
   @DF-RHF iter  15:  -449.52475793381205   -2.84217e-13   5.94746e-10 DIIS
   @DF-RHF iter  16:  -449.52475793381228   -2.27374e-13   1.80526e-10 DIIS
   @DF-RHF iter  17:  -449.52475793381194    3.41061e-13   6.58647e-11 DIIS
  Energy and wave function converged.


  ==> Post-Iterations <==

    Orbital Energies [Eh]
    ---------------------

    Doubly Occupied:                                                      

       1A    -15.635825     2A    -15.635626     3A    -15.591876  
       4A    -15.591721     5A    -11.279505     6A    -11.279325  
       7A    -11.237342     8A    -11.237200     9A    -11.209491  
      10A    -11.209343    11A     -1.386590    12A     -1.386325  
      13A     -1.121481    14A     -1.121307    15A     -1.066527  
      16A     -1.066329    17A     -0.872351    18A     -0.872183  
      19A     -0.836634    20A     -0.836491    21A     -0.756875  
      22A     -0.756727    23A     -0.645338    24A     -0.645166  
      25A     -0.620426    26A     -0.620269    27A     -0.608768  
      28A     -0.608544    29A     -0.583506    30A     -0.583357  
      31A     -0.460989    32A     -0.460792    33A     -0.370304  
      34A     -0.370136    35A     -0.345652    36A     -0.345474  

    Virtual:                                                              

      37A      0.031121    38A      0.031334    39A      0.042730  
      40A      0.042793    41A      0.049587    42A      0.049809  
      43A      0.063917    44A      0.064102    45A      0.101386  
      46A      0.101533    47A      0.104440    48A      0.104639  
      49A      0.117596    50A      0.117688    51A      0.126655  
      52A      0.126826    53A      0.133458    54A      0.133641  
      55A      0.138749    56A      0.138859    57A      0.141865  
      58A      0.141948    59A      0.157244    60A      0.157352  
      61A      0.164963    62A      0.165060    63A      0.171487  
      64A      0.171661    65A      0.178816    66A      0.178966  
      67A      0.196443    68A      0.196755    69A      0.205237  
      70A      0.205432    71A      0.206604    72A      0.206821  
      73A      0.240660    74A      0.240800    75A      0.244025  
      76A      0.244216    77A      0.245411    78A      0.245620  
      79A      0.271573    80A      0.271743    81A      0.279462  
      82A      0.279688    83A      0.301484    84A      0.301641  
      85A      0.325524    86A      0.325710    87A      0.352742  
      88A      0.352924    89A      0.355758    90A      0.355911  
      91A      0.375302    92A      0.375454    93A      0.396444  
      94A      0.396604    95A      0.403138    96A      0.403313  
      97A      0.415375    98A      0.415492    99A      0.432538  
     100A      0.432753   101A      0.443813   102A      0.443984  
     103A      0.453834   104A      0.453995   105A      0.460222  
     106A      0.460355   107A      0.479056   108A      0.479267  
     109A      0.498952   110A      0.499121   111A      0.509110  
     112A      0.509265   113A      0.522339   114A      0.522472  
     115A      0.541966   116A      0.542104   117A      0.574831  
     118A      0.575037   119A      0.586723   120A      0.586888  
     121A      0.590938   122A      0.591092   123A      0.602820  
     124A      0.602967   125A      0.621369   126A      0.621500  
     127A      0.646504   128A      0.646659   129A      0.655684  
     130A      0.655820   131A      0.676569   132A      0.676718  
     133A      0.698439   134A      0.698598   135A      0.700786  
     136A      0.700967   137A      0.722048   138A      0.722234  
     139A      0.725515   140A      0.725677   141A      0.748121  
     142A      0.748276   143A      0.759044   144A      0.759155  
     145A      0.773705   146A      0.773886   147A      0.781884  
     148A      0.782075   149A      0.828934   150A      0.829103  
     151A      0.838643   152A      0.838818   153A      0.848777  
     154A      0.848945   155A      0.881787   156A      0.881942  
     157A      0.889151   158A      0.889322   159A      0.907355  
     160A      0.907521   161A      0.925210   162A      0.925417  
     163A      0.943004   164A      0.943162   165A      0.978616  
     166A      0.978780   167A      0.985257   168A      0.985415  
     169A      1.011600   170A      1.011765   171A      1.047048  
     172A      1.047232   173A      1.066896   174A      1.067058  
     175A      1.101259   176A      1.101454   177A      1.128508  
     178A      1.128636   179A      1.134560   180A      1.134787  
     181A      1.150643   182A      1.150791   183A      1.175571  
     184A      1.175742   185A      1.220956   186A      1.221146  
     187A      1.269978   188A      1.270137   189A      1.303804  
     190A      1.303938   191A      1.311850   192A      1.311997  
     193A      1.366214   194A      1.366416   195A      1.401437  
     196A      1.401599   197A      1.475122   198A      1.475307  
     199A      1.512430   200A      1.512619   201A      1.526535  
     202A      1.526687   203A      1.561378   204A      1.561556  
     205A      1.591280   206A      1.591431   207A      1.609079  
     208A      1.609227   209A      1.637833   210A      1.637981  
     211A      1.669889   212A      1.670024   213A      1.704040  
     214A      1.704207   215A      1.724364   216A      1.724526  
     217A      1.749656   218A      1.749788   219A      1.764767  
     220A      1.764945   221A      1.805434   222A      1.805621  
     223A      1.875985   224A      1.876196   225A      1.932812  
     226A      1.932967   227A      1.943956   228A      1.944103  
     229A      1.988545   230A      1.988629   231A      2.021863  
     232A      2.022025   233A      2.058065   234A      2.058184  
     235A      2.089209   236A      2.089417   237A      2.145116  
     238A      2.145267   239A      2.190394   240A      2.190567  
     241A      2.201231   242A      2.201389   243A      2.230863  
     244A      2.231046   245A      2.276236   246A      2.276385  
     247A      2.308039   248A      2.308226   249A      2.361050  
     250A      2.361281   251A      2.389529   252A      2.389713  
     253A      2.394168   254A      2.394441   255A      2.435611  
     256A      2.435850   257A      2.465356   258A      2.465586  
     259A      2.532191   260A      2.532379   261A      2.570605  
     262A      2.570815   263A      2.585229   264A      2.585323  
     265A      2.643365   266A      2.643548   267A      2.733411  
     268A      2.733609   269A      2.827219   270A      2.827424  
     271A      2.835117   272A      2.835336   273A      2.901957  
     274A      2.902182   275A      2.918969   276A      2.919199  
     277A      2.999598   278A      2.999737   279A      3.055718  
     280A      3.055911   281A      3.092855   282A      3.092958  
     283A      3.123108   284A      3.123311   285A      3.189422  
     286A      3.189511   287A      3.222433   288A      3.222583  
     289A      3.298329   290A      3.298460   291A      3.380613  
     292A      3.380796   293A      3.521175   294A      3.521323  
     295A      3.686699   296A      3.687134   297A      3.889663  
     298A      3.889931   299A      4.209729   300A      4.210026  
     301A      4.463431   302A      4.463793  

    Final Occupation by Irrep:
              A 
    DOCC [    36 ]

  @DF-RHF Final Energy:  -449.52475793381194

   => Energetics <=

    Nuclear Repulsion Energy =            373.4766183569150826
    One-Electron Energy =               -1347.4911590513017927
    Two-Electron Energy =                 524.4897827605748262
    Total Energy =                       -449.5247579338118840

Computation Completed


Properties will be evaluated at   0.000000,   0.000000,   0.000000 [a0]

Properties computed using the SCF density matrix

  Nuclear Dipole Moment: [e a0]
     X:  1439.6747      Y:    11.5944      Z:  -193.9716

  Electronic Dipole Moment: [e a0]
     X: -1439.7853      Y:   -10.4005      Z:   193.8484

  Dipole Moment: [e a0]
     X:    -0.1106      Y:     1.1940      Z:    -0.1232     Total:     1.2054

  Dipole Moment: [D]
     X:    -0.2812      Y:     3.0348      Z:    -0.3132     Total:     3.0638


*** tstop() called on ds1 at Mon Oct  4 15:44:47 2021
Module time:
	user time   =      22.19 seconds =       0.37 minutes
	system time =       0.55 seconds =       0.01 minutes
	total time  =          5 seconds =       0.08 minutes
Total time:
	user time   =      22.19 seconds =       0.37 minutes
	system time =       0.55 seconds =       0.01 minutes
	total time  =          5 seconds =       0.08 minutes

  //>>>>>>>>>>>>>>>>>>>>>>>>>>>>>>>>>>>//
  //            Monomer A HF           //
  //<<<<<<<<<<<<<<<<<<<<<<<<<<<<<<<<<<<//


*** tstart() called on ds1
*** at Mon Oct  4 15:44:47 2021

   => Loading Basis Set <=

    Name: AUG-CC-PVDZ
    Role: ORBITAL
    Keyword: BASIS
    atoms 1-2, 10-11 entry N          line   218 file /theoryfs2/ds/csargent/miniconda3/envs/cle/share/psi4/basis/aug-cc-pvdz.gbs 
    atoms 3-6, 12-15 entry H          line    40 file /theoryfs2/ds/csargent/miniconda3/envs/cle/share/psi4/basis/aug-cc-pvdz.gbs 
    atoms 7-9, 16-18 entry C          line   182 file /theoryfs2/ds/csargent/miniconda3/envs/cle/share/psi4/basis/aug-cc-pvdz.gbs 


         ---------------------------------------------------------
                                   SCF
               by Justin Turney, Rob Parrish, Andy Simmonett
                          and Daniel G. A. Smith
                              RHF Reference
                        6 Threads,   6675 MiB Core
         ---------------------------------------------------------

  ==> Geometry <==

    Molecular point group: c1
    Full point group: C1

    Geometry (in Bohr), charge = 0, multiplicity = 1:

       Center              X                  Y                   Z               Mass       
    ------------   -----------------  -----------------  -----------------  -----------------
         N            6.279812100000    -4.253033720000     0.193138650000    14.003074004430
         N            6.068707770000    -2.281256970000     1.805443170000    14.003074004430
         H            3.668711560000    -5.646289410000    -1.966840010000     1.007825032230
         H            0.690345210000    -2.375456940000    -0.428642360000     1.007825032230
         H            3.359174420000     0.176506010000     3.092650170000     1.007825032230
         H            7.352667820000    -1.994613110000     2.906807020000     1.007825032230
         C            3.779525860000    -1.215084530000     1.768581720000    12.000000000000
         C            2.382429980000    -2.555055380000     0.046076810000    12.000000000000
         C            4.017714680000    -4.384104900000    -0.887618630000    12.000000000000
      Gh(N)          33.751852290000     2.400909970000    -4.811699310000    14.003074004430
      Gh(N)          33.870714550000     4.438817000000    -6.348873030000    14.003074004430
      Gh(H)          36.425015030000     0.000000000000    -4.093668960000     1.007825032230
      Gh(H)          39.319651580000     2.442538740000    -6.848806460000     1.007825032230
      Gh(H)          36.383227510000     6.155587760000    -8.753442770000     1.007825032230
      Gh(H)          32.408306340000     5.248794060000    -6.734638360000     1.007825032230
      Gh(C)          36.153550950000     4.768992670000    -7.377921880000    12.000000000000
      Gh(C)          37.636543390000     2.839320460000    -6.487999410000    12.000000000000
      Gh(C)          36.075238060000     1.454152640000    -4.896301460000    12.000000000000

  Running in c1 symmetry.

  Rotational constants: A =      0.04726  B =      0.00067  C =      0.00066 [cm^-1]
  Rotational constants: A =   1416.85600  B =     19.99981  C =     19.79507 [MHz]
  Nuclear repulsion =  166.624056450327203

  Charge       = 0
  Multiplicity = 1
  Electrons    = 36
  Nalpha       = 18
  Nbeta        = 18

  ==> Algorithm <==

  SCF Algorithm Type is DF.
  DIIS enabled.
  MOM disabled.
  Fractional occupation disabled.
  Guess Type is SAD.
  Energy threshold   = 1.00e-10
  Density threshold  = 1.00e-10
  Integral threshold = 1.00e-12

  ==> Primary Basis <==

  Basis Set: AUG-CC-PVDZ
    Blend: AUG-CC-PVDZ
    Number of shells: 130
    Number of basis functions: 302
    Number of Cartesian functions: 322
    Spherical Harmonics?: true
    Max angular momentum: 2

   => Loading Basis Set <=

    Name: (AUG-CC-PVDZ AUX)
    Role: JKFIT
    Keyword: DF_BASIS_SCF
    atoms 1-2, 10-11 entry N          line   212 file /theoryfs2/ds/csargent/miniconda3/envs/cle/share/psi4/basis/aug-cc-pvdz-jkfit.gbs 
    atoms 3-6, 12-15 entry H          line    70 file /theoryfs2/ds/csargent/miniconda3/envs/cle/share/psi4/basis/aug-cc-pvdz-jkfit.gbs 
    atoms 7-9, 16-18 entry C          line   154 file /theoryfs2/ds/csargent/miniconda3/envs/cle/share/psi4/basis/aug-cc-pvdz-jkfit.gbs 

  ==> Integral Setup <==

  ==> DiskDFJK: Density-Fitted J/K Matrices <==

    J tasked:                  Yes
    K tasked:                  Yes
    wK tasked:                  No
    OpenMP threads:              6
    Integrals threads:           6
    Memory [MiB]:             5006
    Algorithm:                Core
    Integral Cache:           LOAD
    Schwarz Cutoff:          1E-12
    Fitting Condition:       1E-10

   => Auxiliary Basis Set <=

  Basis Set: (AUG-CC-PVDZ AUX)
    Blend: AUG-CC-PVDZ-JKFIT
    Number of shells: 376
    Number of basis functions: 1116
    Number of Cartesian functions: 1290
    Spherical Harmonics?: true
    Max angular momentum: 3

  Minimum eigenvalue in the overlap matrix is 3.0324469242E-05.
  Reciprocal condition number of the overlap matrix is 2.4867199300E-06.
    Using symmetric orthogonalization.

  ==> Pre-Iterations <==

  SCF Guess: Superposition of Atomic Densities via on-the-fly atomic UHF (no occupation information).

   -------------------------
    Irrep   Nso     Nmo    
   -------------------------
     A        302     302 
   -------------------------
    Total     302     302
   -------------------------

  ==> Iterations <==

                           Total Energy        Delta E     RMS |[F,P]|

   @DF-RHF iter SAD:  -224.72194801365666   -2.24722e+02   0.00000e+00 
   @DF-RHF iter   1:  -224.63549170181096    8.64563e-02   1.50472e-03 DIIS
   @DF-RHF iter   2:  -224.73984613465785   -1.04354e-01   6.88462e-04 DIIS
   @DF-RHF iter   3:  -224.76075487350448   -2.09087e-02   1.48626e-04 DIIS
   @DF-RHF iter   4:  -224.76213931728969   -1.38444e-03   6.05310e-05 DIIS
   @DF-RHF iter   5:  -224.76231767204925   -1.78355e-04   1.19893e-05 DIIS
   @DF-RHF iter   6:  -224.76233462952331   -1.69575e-05   4.96772e-06 DIIS
   @DF-RHF iter   7:  -224.76233858556077   -3.95604e-06   2.18806e-06 DIIS
   @DF-RHF iter   8:  -224.76233934630284   -7.60742e-07   1.01700e-06 DIIS
   @DF-RHF iter   9:  -224.76233951394471   -1.67642e-07   2.83302e-07 DIIS
   @DF-RHF iter  10:  -224.76233952276567   -8.82096e-09   8.55547e-08 DIIS
   @DF-RHF iter  11:  -224.76233952345524   -6.89568e-10   1.99714e-08 DIIS
   @DF-RHF iter  12:  -224.76233952350162   -4.63842e-11   5.81092e-09 DIIS
   @DF-RHF iter  13:  -224.76233952350543   -3.80851e-12   2.83097e-09 DIIS
   @DF-RHF iter  14:  -224.76233952350628   -8.52651e-13   9.75191e-10 DIIS
   @DF-RHF iter  15:  -224.76233952350634   -5.68434e-14   4.15548e-10 DIIS
   @DF-RHF iter  16:  -224.76233952350685   -5.11591e-13   1.25998e-10 DIIS
   @DF-RHF iter  17:  -224.76233952350668    1.70530e-13   4.47781e-11 DIIS
  Energy and wave function converged.


  ==> Post-Iterations <==

    Orbital Energies [Eh]
    ---------------------

    Doubly Occupied:                                                      

       1A    -15.636223     2A    -15.592313     3A    -11.279894  
       4A    -11.237784     5A    -11.209891     6A     -1.386922  
       7A     -1.121901     8A     -1.066898     9A     -0.872768  
      10A     -0.837061    11A     -0.757292    12A     -0.645746  
      13A     -0.620834    14A     -0.609140    15A     -0.583920  
      16A     -0.461404    17A     -0.370721    18A     -0.346048  

    Virtual:                                                              

      19A      0.023108    20A      0.030764    21A      0.040435  
      22A      0.042368    23A      0.044581    24A      0.049159  
      25A      0.063520    26A      0.066289    27A      0.084396  
      28A      0.091209    29A      0.099403    30A      0.100998  
      31A      0.104029    32A      0.117179    33A      0.118746  
      34A      0.126259    35A      0.126277    36A      0.128634  
      37A      0.133069    38A      0.133788    39A      0.134565  
      40A      0.138403    41A      0.141490    42A      0.156889  
      43A      0.158967    44A      0.164592    45A      0.166364  
      46A      0.171075    47A      0.178408    48A      0.179611  
      49A      0.195985    50A      0.196043    51A      0.201965  
      52A      0.204793    53A      0.206162    54A      0.223443  
      55A      0.225553    56A      0.228709    57A      0.236032  
      58A      0.240236    59A      0.243626    60A      0.244965  
      61A      0.264566    62A      0.271127    63A      0.271443  
      64A      0.279080    65A      0.301010    66A      0.322407  
      67A      0.325148    68A      0.340516    69A      0.352358  
      70A      0.355357    71A      0.366992    72A      0.373345  
      73A      0.374907    74A      0.384160    75A      0.396061  
      76A      0.402741    77A      0.414998    78A      0.427920  
      79A      0.432132    80A      0.432511    81A      0.441604  
      82A      0.442745    83A      0.443385    84A      0.453393  
      85A      0.456478    86A      0.457871    87A      0.459816  
      88A      0.462330    89A      0.478655    90A      0.498543  
      91A      0.508690    92A      0.510177    93A      0.519873  
      94A      0.521917    95A      0.533585    96A      0.538500  
      97A      0.541560    98A      0.559776    99A      0.569290  
     100A      0.572282   101A      0.574432   102A      0.586318  
     103A      0.590538   104A      0.595596   105A      0.602413  
     106A      0.613824   107A      0.620953   108A      0.621731  
     109A      0.633991   110A      0.646110   111A      0.655295  
     112A      0.676162   113A      0.691278   114A      0.698041  
     115A      0.700391   116A      0.708263   117A      0.719908  
     118A      0.721667   119A      0.725115   120A      0.736116  
     121A      0.745833   122A      0.747709   123A      0.758592  
     124A      0.773318   125A      0.781481   126A      0.790197  
     127A      0.798572   128A      0.814890   129A      0.821417  
     130A      0.828504   131A      0.838230   132A      0.848394  
     133A      0.852398   134A      0.855550   135A      0.871460  
     136A      0.881395   137A      0.881557   138A      0.888767  
     139A      0.896163   140A      0.906950   141A      0.916619  
     142A      0.924815   143A      0.942582   144A      0.952607  
     145A      0.978222   146A      0.984850   147A      0.997681  
     148A      1.011149   149A      1.024676   150A      1.030752  
     151A      1.046606   152A      1.052142   153A      1.066503  
     154A      1.071587   155A      1.081498   156A      1.100852  
     157A      1.108746   158A      1.128058   159A      1.134196  
     160A      1.150235   161A      1.159346   162A      1.166861  
     163A      1.175168   164A      1.185518   165A      1.220548  
     166A      1.222309   167A      1.237609   168A      1.268546  
     169A      1.269556   170A      1.294341   171A      1.303342  
     172A      1.311399   173A      1.315721   174A      1.341245  
     175A      1.365807   176A      1.382415   177A      1.401043  
     178A      1.435595   179A      1.445334   180A      1.474691  
     181A      1.493779   182A      1.507646   183A      1.512027  
     184A      1.526129   185A      1.560989   186A      1.590882  
     187A      1.608669   188A      1.637437   189A      1.669472  
     190A      1.677312   191A      1.689491   192A      1.703634  
     193A      1.723950   194A      1.749215   195A      1.764373  
     196A      1.805048   197A      1.875632   198A      1.932390  
     199A      1.943558   200A      1.988067   201A      2.021445  
     202A      2.041629   203A      2.057611   204A      2.088839  
     205A      2.109624   206A      2.135361   207A      2.144687  
     208A      2.168653   209A      2.190005   210A      2.200827  
     211A      2.217180   212A      2.230457   213A      2.234416  
     214A      2.262431   215A      2.275825   216A      2.278299  
     217A      2.289824   218A      2.307640   219A      2.336207  
     220A      2.360716   221A      2.381181   222A      2.389130  
     223A      2.393822   224A      2.395100   225A      2.435246  
     226A      2.444425   227A      2.464967   228A      2.478854  
     229A      2.500491   230A      2.514275   231A      2.531798  
     232A      2.549373   233A      2.570232   234A      2.584716  
     235A      2.631914   236A      2.642961   237A      2.668110  
     238A      2.703614   239A      2.719460   240A      2.733029  
     241A      2.826838   242A      2.828524   243A      2.834751  
     244A      2.870408   245A      2.890588   246A      2.901587  
     247A      2.918598   248A      2.945685   249A      2.999157  
     250A      3.028562   251A      3.055324   252A      3.090335  
     253A      3.092358   254A      3.122730   255A      3.140622  
     256A      3.182479   257A      3.188930   258A      3.222008  
     259A      3.254768   260A      3.289749   261A      3.297865  
     262A      3.356276   263A      3.380235   264A      3.396251  
     265A      3.424014   266A      3.448818   267A      3.487802  
     268A      3.498130   269A      3.520727   270A      3.634266  
     271A      3.667573   272A      3.686563   273A      3.736228  
     274A      3.770754   275A      3.851765   276A      3.889327  
     277A      3.965131   278A      4.036281   279A      4.095385  
     280A      4.209428   281A      4.244686   282A      4.448874  
     283A      4.463235   284A      4.659132   285A      4.708790  
     286A      4.750535   287A      4.811452   288A      4.995465  
     289A      5.077344   290A      5.241856   291A      5.532103  
     292A      5.669667   293A      5.827264   294A      6.107661  
     295A      6.318770   296A      6.708190   297A      6.968135  
     298A     18.111760   299A     18.648660   300A     19.374269  
     301A     25.246100   302A     25.705975  

    Final Occupation by Irrep:
              A 
    DOCC [    18 ]

  @DF-RHF Final Energy:  -224.76233952350668

   => Energetics <=

    Nuclear Repulsion Energy =            166.6240564503272026
    One-Electron Energy =                -633.4992733922288153
    Two-Electron Energy =                 242.1128774183949304
    Total Energy =                       -224.7623395235066823

Computation Completed


Properties will be evaluated at   0.000000,   0.000000,   0.000000 [a0]

Properties computed using the SCF density matrix

  Nuclear Dipole Moment: [e a0]
     X:   162.5886      Y:  -104.5054      Z:    23.1563

  Electronic Dipole Moment: [e a0]
     X:  -162.9913      Y:   105.1370      Z:   -22.5767

  Dipole Moment: [e a0]
     X:    -0.4027      Y:     0.6317      Z:     0.5796     Total:     0.9472

  Dipole Moment: [D]
     X:    -1.0235      Y:     1.6055      Z:     1.4733     Total:     2.4075


*** tstop() called on ds1 at Mon Oct  4 15:44:50 2021
Module time:
	user time   =      16.05 seconds =       0.27 minutes
	system time =       0.31 seconds =       0.01 minutes
	total time  =          3 seconds =       0.05 minutes
Total time:
	user time   =      38.27 seconds =       0.64 minutes
	system time =       0.86 seconds =       0.01 minutes
	total time  =          8 seconds =       0.13 minutes

  //>>>>>>>>>>>>>>>>>>>>>>>>>>>>>>>>>>>//
  //            Monomer B HF           //
  //<<<<<<<<<<<<<<<<<<<<<<<<<<<<<<<<<<<//


*** tstart() called on ds1
*** at Mon Oct  4 15:44:50 2021

   => Loading Basis Set <=

    Name: AUG-CC-PVDZ
    Role: ORBITAL
    Keyword: BASIS
    atoms 1-2, 10-11 entry N          line   218 file /theoryfs2/ds/csargent/miniconda3/envs/cle/share/psi4/basis/aug-cc-pvdz.gbs 
    atoms 3-6, 12-15 entry H          line    40 file /theoryfs2/ds/csargent/miniconda3/envs/cle/share/psi4/basis/aug-cc-pvdz.gbs 
    atoms 7-9, 16-18 entry C          line   182 file /theoryfs2/ds/csargent/miniconda3/envs/cle/share/psi4/basis/aug-cc-pvdz.gbs 


         ---------------------------------------------------------
                                   SCF
               by Justin Turney, Rob Parrish, Andy Simmonett
                          and Daniel G. A. Smith
                              RHF Reference
                        6 Threads,   6675 MiB Core
         ---------------------------------------------------------

  ==> Geometry <==

    Molecular point group: c1
    Full point group: C1

    Geometry (in Bohr), charge = 0, multiplicity = 1:

       Center              X                  Y                   Z               Mass       
    ------------   -----------------  -----------------  -----------------  -----------------
      Gh(N)           6.279812100000    -4.253033720000     0.193138650000    14.003074004430
      Gh(N)           6.068707770000    -2.281256970000     1.805443170000    14.003074004430
      Gh(H)           3.668711560000    -5.646289410000    -1.966840010000     1.007825032230
      Gh(H)           0.690345210000    -2.375456940000    -0.428642360000     1.007825032230
      Gh(H)           3.359174420000     0.176506010000     3.092650170000     1.007825032230
      Gh(H)           7.352667820000    -1.994613110000     2.906807020000     1.007825032230
      Gh(C)           3.779525860000    -1.215084530000     1.768581720000    12.000000000000
      Gh(C)           2.382429980000    -2.555055380000     0.046076810000    12.000000000000
      Gh(C)           4.017714680000    -4.384104900000    -0.887618630000    12.000000000000
         N           33.751852290000     2.400909970000    -4.811699310000    14.003074004430
         N           33.870714550000     4.438817000000    -6.348873030000    14.003074004430
         H           36.425015030000     0.000000000000    -4.093668960000     1.007825032230
         H           39.319651580000     2.442538740000    -6.848806460000     1.007825032230
         H           36.383227510000     6.155587760000    -8.753442770000     1.007825032230
         H           32.408306340000     5.248794060000    -6.734638360000     1.007825032230
         C           36.153550950000     4.768992670000    -7.377921880000    12.000000000000
         C           37.636543390000     2.839320460000    -6.487999410000    12.000000000000
         C           36.075238060000     1.454152640000    -4.896301460000    12.000000000000

  Running in c1 symmetry.

  Rotational constants: A =      0.04726  B =      0.00067  C =      0.00066 [cm^-1]
  Rotational constants: A =   1416.85600  B =     19.99981  C =     19.79507 [MHz]
  Nuclear repulsion =  166.628602810234270

  Charge       = 0
  Multiplicity = 1
  Electrons    = 36
  Nalpha       = 18
  Nbeta        = 18

  ==> Algorithm <==

  SCF Algorithm Type is DF.
  DIIS enabled.
  MOM disabled.
  Fractional occupation disabled.
  Guess Type is SAD.
  Energy threshold   = 1.00e-10
  Density threshold  = 1.00e-10
  Integral threshold = 1.00e-12

  ==> Primary Basis <==

  Basis Set: AUG-CC-PVDZ
    Blend: AUG-CC-PVDZ
    Number of shells: 130
    Number of basis functions: 302
    Number of Cartesian functions: 322
    Spherical Harmonics?: true
    Max angular momentum: 2

   => Loading Basis Set <=

    Name: (AUG-CC-PVDZ AUX)
    Role: JKFIT
    Keyword: DF_BASIS_SCF
    atoms 1-2, 10-11 entry N          line   212 file /theoryfs2/ds/csargent/miniconda3/envs/cle/share/psi4/basis/aug-cc-pvdz-jkfit.gbs 
    atoms 3-6, 12-15 entry H          line    70 file /theoryfs2/ds/csargent/miniconda3/envs/cle/share/psi4/basis/aug-cc-pvdz-jkfit.gbs 
    atoms 7-9, 16-18 entry C          line   154 file /theoryfs2/ds/csargent/miniconda3/envs/cle/share/psi4/basis/aug-cc-pvdz-jkfit.gbs 

  ==> Integral Setup <==

  ==> DiskDFJK: Density-Fitted J/K Matrices <==

    J tasked:                  Yes
    K tasked:                  Yes
    wK tasked:                  No
    OpenMP threads:              6
    Integrals threads:           6
    Memory [MiB]:             5006
    Algorithm:                Core
    Integral Cache:           LOAD
    Schwarz Cutoff:          1E-12
    Fitting Condition:       1E-10

   => Auxiliary Basis Set <=

  Basis Set: (AUG-CC-PVDZ AUX)
    Blend: AUG-CC-PVDZ-JKFIT
    Number of shells: 376
    Number of basis functions: 1116
    Number of Cartesian functions: 1290
    Spherical Harmonics?: true
    Max angular momentum: 3

  Minimum eigenvalue in the overlap matrix is 3.0324469242E-05.
  Reciprocal condition number of the overlap matrix is 2.4867199300E-06.
    Using symmetric orthogonalization.

  ==> Pre-Iterations <==

  SCF Guess: Superposition of Atomic Densities via on-the-fly atomic UHF (no occupation information).

   -------------------------
    Irrep   Nso     Nmo    
   -------------------------
     A        302     302 
   -------------------------
    Total     302     302
   -------------------------

  ==> Iterations <==

                           Total Energy        Delta E     RMS |[F,P]|

   @DF-RHF iter SAD:  -224.72250854627381   -2.24723e+02   0.00000e+00 
   @DF-RHF iter   1:  -224.63556596023017    8.69426e-02   1.50490e-03 DIIS
   @DF-RHF iter   2:  -224.73993304793893   -1.04367e-01   6.88620e-04 DIIS
   @DF-RHF iter   3:  -224.76085080124378   -2.09178e-02   1.48614e-04 DIIS
   @DF-RHF iter   4:  -224.76223499990766   -1.38420e-03   6.05151e-05 DIIS
   @DF-RHF iter   5:  -224.76241324440991   -1.78245e-04   1.19848e-05 DIIS
   @DF-RHF iter   6:  -224.76243017755846   -1.69331e-05   4.96323e-06 DIIS
   @DF-RHF iter   7:  -224.76243412540151   -3.94784e-06   2.18627e-06 DIIS
   @DF-RHF iter   8:  -224.76243488494032   -7.59539e-07   1.01631e-06 DIIS
   @DF-RHF iter   9:  -224.76243505244517   -1.67505e-07   2.83280e-07 DIIS
   @DF-RHF iter  10:  -224.76243506126258   -8.81741e-09   8.55270e-08 DIIS
   @DF-RHF iter  11:  -224.76243506195217   -6.89596e-10   1.99678e-08 DIIS
   @DF-RHF iter  12:  -224.76243506199825   -4.60716e-11   5.80973e-09 DIIS
   @DF-RHF iter  13:  -224.76243506200262   -4.37694e-12   2.83582e-09 DIIS
   @DF-RHF iter  14:  -224.76243506200362   -9.94760e-13   9.79832e-10 DIIS
   @DF-RHF iter  15:  -224.76243506200382   -1.98952e-13   4.16538e-10 DIIS
   @DF-RHF iter  16:  -224.76243506200404   -2.27374e-13   1.25808e-10 DIIS
   @DF-RHF iter  17:  -224.76243506200345    5.96856e-13   4.47600e-11 DIIS
  Energy and wave function converged.


  ==> Post-Iterations <==

    Orbital Energies [Eh]
    ---------------------

    Doubly Occupied:                                                      

       1A    -15.636233     2A    -15.592291     3A    -11.279903  
       4A    -11.237759     5A    -11.209884     6A     -1.387001  
       7A     -1.121894     8A     -1.066928     9A     -0.872759  
      10A     -0.837039    11A     -0.757272    12A     -0.645745  
      13A     -0.620828    14A     -0.609177    15A     -0.583905  
      16A     -0.461413    17A     -0.370715    18A     -0.346055  

    Virtual:                                                              

      19A      0.023260    20A      0.030764    21A      0.040554  
      22A      0.042369    23A      0.044779    24A      0.049158  
      25A      0.063519    26A      0.066506    27A      0.084526  
      28A      0.091395    29A      0.099581    30A      0.101001  
      31A      0.104028    32A      0.117186    33A      0.118852  
      34A      0.126271    35A      0.126387    36A      0.128760  
      37A      0.133070    38A      0.133906    39A      0.134697  
      40A      0.138399    41A      0.141487    42A      0.156889  
      43A      0.159082    44A      0.164594    45A      0.166524  
      46A      0.171081    47A      0.178407    48A      0.179840  
      49A      0.196040    50A      0.196166    51A      0.202204  
      52A      0.204806    53A      0.206166    54A      0.223640  
      55A      0.225700    56A      0.228862    57A      0.236252  
      58A      0.240240    59A      0.243627    60A      0.244965  
      61A      0.264768    62A      0.271138    63A      0.271695  
      64A      0.279081    65A      0.301024    66A      0.322580  
      67A      0.325138    68A      0.340673    69A      0.352355  
      70A      0.355359    71A      0.367157    72A      0.373459  
      73A      0.374909    74A      0.384305    75A      0.396062  
      76A      0.402744    77A      0.415005    78A      0.428119  
      79A      0.432131    80A      0.432632    81A      0.441714  
      82A      0.442866    83A      0.443379    84A      0.453414  
      85A      0.456659    86A      0.458032    87A      0.459816  
      88A      0.462522    89A      0.478656    90A      0.498544  
      91A      0.508693    92A      0.510347    93A      0.520086  
      94A      0.521953    95A      0.533789    96A      0.538645  
      97A      0.541569    98A      0.559947    99A      0.569532  
     100A      0.572406   101A      0.574428   102A      0.586322  
     103A      0.590547   104A      0.595743   105A      0.602431  
     106A      0.613977   107A      0.620974   108A      0.621910  
     109A      0.634145   110A      0.646111   111A      0.655304  
     112A      0.676168   113A      0.691431   114A      0.698039  
     115A      0.700384   116A      0.708450   117A      0.720069  
     118A      0.721648   119A      0.725121   120A      0.736261  
     121A      0.745962   122A      0.747717   123A      0.758643  
     124A      0.773300   125A      0.781476   126A      0.790356  
     127A      0.798744   128A      0.815041   129A      0.821572  
     130A      0.828513   131A      0.838238   132A      0.848382  
     133A      0.852525   134A      0.855712   135A      0.871613  
     136A      0.881396   137A      0.881677   138A      0.888762  
     139A      0.896309   140A      0.906950   141A      0.916805  
     142A      0.924803   143A      0.942599   144A      0.952765  
     145A      0.978204   146A      0.984853   147A      0.997847  
     148A      1.011170   149A      1.024825   150A      1.030957  
     151A      1.046624   152A      1.052344   153A      1.066503  
     154A      1.071727   155A      1.081639   156A      1.100853  
     157A      1.108916   158A      1.128099   159A      1.134152  
     160A      1.150240   161A      1.159539   162A      1.167038  
     163A      1.175167   164A      1.185692   165A      1.220538  
     166A      1.222498   167A      1.237782   168A      1.268754  
     169A      1.269573   170A      1.294534   171A      1.303390  
     172A      1.311431   173A      1.315899   174A      1.341420  
     175A      1.365802   176A      1.382585   177A      1.401039  
     178A      1.435794   179A      1.445510   180A      1.474706  
     181A      1.494004   182A      1.507803   183A      1.512021  
     184A      1.526136   185A      1.560976   186A      1.590889  
     187A      1.608679   188A      1.637435   189A      1.669494  
     190A      1.677514   191A      1.689706   192A      1.703636  
     193A      1.723957   194A      1.749249   195A      1.764367  
     196A      1.805025   197A      1.875589   198A      1.932406  
     199A      1.943562   200A      1.988139   201A      2.021453  
     202A      2.041763   203A      2.057662   204A      2.088810  
     205A      2.109755   206A      2.135531   207A      2.144708  
     208A      2.168763   209A      2.189999   210A      2.200828  
     211A      2.217349   212A      2.230454   213A      2.234545  
     214A      2.262561   215A      2.275832   216A      2.278455  
     217A      2.289965   218A      2.307637   219A      2.336419  
     220A      2.360646   221A      2.381291   222A      2.389121  
     223A      2.393758   224A      2.395251   225A      2.435199  
     226A      2.444586   227A      2.464942   228A      2.479015  
     229A      2.500566   230A      2.514461   231A      2.531785  
     232A      2.549510   233A      2.570195   234A      2.584820  
     235A      2.632076   236A      2.642959   237A      2.668272  
     238A      2.703783   239A      2.719615   240A      2.733013  
     241A      2.826807   242A      2.828636   243A      2.834707  
     244A      2.870599   245A      2.890739   246A      2.901543  
     247A      2.918563   248A      2.945905   249A      2.999195  
     250A      3.028800   251A      3.055311   252A      3.090587  
     253A      3.092440   254A      3.122703   255A      3.140759  
     256A      3.182739   257A      3.189011   258A      3.222030  
     259A      3.254934   260A      3.290000   261A      3.297913  
     262A      3.356576   263A      3.380219   264A      3.396411  
     265A      3.424305   266A      3.449061   267A      3.487927  
     268A      3.498223   269A      3.520764   270A      3.634402  
     271A      3.667740   272A      3.686295   273A      3.736381  
     274A      3.770907   275A      3.851995   276A      3.889250  
     277A      3.965141   278A      4.036360   279A      4.095563  
     280A      4.209312   281A      4.244874   282A      4.449226  
     283A      4.463032   284A      4.659270   285A      4.708863  
     286A      4.750675   287A      4.811581   288A      4.995647  
     289A      5.077623   290A      5.242231   291A      5.532047  
     292A      5.669796   293A      5.827633   294A      6.107515  
     295A      6.319025   296A      6.709146   297A      6.968697  
     298A     18.111896   299A     18.648601   300A     19.374299  
     301A     25.246423   302A     25.705813  

    Final Occupation by Irrep:
              A 
    DOCC [    18 ]

  @DF-RHF Final Energy:  -224.76243506200345

   => Energetics <=

    Nuclear Repulsion Energy =            166.6286028102342698
    One-Electron Energy =                -633.5084734001920879
    Two-Electron Energy =                 242.1174355279543704
    Total Energy =                       -224.7624350620034477

Computation Completed


Properties will be evaluated at   0.000000,   0.000000,   0.000000 [a0]

Properties computed using the SCF density matrix

  Nuclear Dipole Moment: [e a0]
     X:  1277.0862      Y:   116.0998      Z:  -217.1279

  Electronic Dipole Moment: [e a0]
     X: -1276.7952      Y:  -115.5358      Z:   216.4248

  Dipole Moment: [e a0]
     X:     0.2909      Y:     0.5640      Z:    -0.7031     Total:     0.9472

  Dipole Moment: [D]
     X:     0.7394      Y:     1.4336      Z:    -1.7871     Total:     2.4074


*** tstop() called on ds1 at Mon Oct  4 15:44:54 2021
Module time:
	user time   =      16.04 seconds =       0.27 minutes
	system time =       0.32 seconds =       0.01 minutes
	total time  =          4 seconds =       0.07 minutes
Total time:
	user time   =      54.40 seconds =       0.91 minutes
	system time =       1.18 seconds =       0.02 minutes
	total time  =         12 seconds =       0.20 minutes
  Constructing Basis Sets for SAPT...

   => Loading Basis Set <=

    Name: (AUG-CC-PVDZ AUX)
    Role: RIFIT
    Keyword: DF_BASIS_SAPT
    atoms 1-2, 10-11 entry N          line   158 file /theoryfs2/ds/csargent/miniconda3/envs/cle/share/psi4/basis/aug-cc-pvdz-ri.gbs 
    atoms 3-6, 12-15 entry H          line    30 file /theoryfs2/ds/csargent/miniconda3/envs/cle/share/psi4/basis/aug-cc-pvdz-ri.gbs 
    atoms 7-9, 16-18 entry C          line   112 file /theoryfs2/ds/csargent/miniconda3/envs/cle/share/psi4/basis/aug-cc-pvdz-ri.gbs 


  //>>>>>>>>>>>>>>>>>>>>>>>>>>>>>>>>>>>//
  //               SAPT0               //
  //<<<<<<<<<<<<<<<<<<<<<<<<<<<<<<<<<<<//


*** tstart() called on ds1
*** at Mon Oct  4 15:44:54 2021

        SAPT0  
    Ed Hohenstein
     6 June 2009

      Orbital Information
  --------------------------
    NSO        =       302
    NMO        =       302
    NRI        =       904
    NOCC A     =        18
    NOCC B     =        18
    FOCC A     =         5
    FOCC B     =         5
    NVIR A     =       284
    NVIR B     =       284

    Elst10,r            =     0.000016697821 [Eh]
    Exch10              =     0.000000000000 [Eh]
    Exch10 (S^2)        =     0.000000000000 [Eh]

    Iter     Energy [mEh]          dE [mEh]         Residual      Time [s]
       1      -0.00006063       0.000060629       0.095828770             0
       2      -0.00005465      -0.000005984       0.021065166             0
       3      -0.00006140       0.000006754       0.007153006             0
       4      -0.00006171       0.000000307       0.003237232             0
       5      -0.00006149      -0.000000219       0.001596738             0
       6      -0.00006143      -0.000000058       0.000523483             1
       7      -0.00006145       0.000000020       0.000228394             1
       8      -0.00006147       0.000000016       0.000053041             1
       9      -0.00006146      -0.000000004       0.000021060             1
      10      -0.00006146      -0.000000001       0.000006711             1
      11      -0.00006146       0.000000000       0.000002692             1
      12      -0.00006146       0.000000000       0.000001049             1
      13      -0.00006146      -0.000000000       0.000000285             1

    CHF Iterations converged


    Iter     Energy [mEh]          dE [mEh]         Residual      Time [s]
       1      -0.00003469       0.000034686       0.059969254             1
       2      -0.00003156      -0.000003124       0.015377535             1
       3      -0.00003361       0.000002043       0.008000110             1
       4      -0.00003469       0.000001081       0.001594367             1
       5      -0.00003453      -0.000000155       0.000920149             1
       6      -0.00003451      -0.000000022       0.000375716             1
       7      -0.00003453       0.000000020       0.000125733             1
       8      -0.00003453       0.000000002       0.000045912             1
       9      -0.00003453      -0.000000001       0.000011908             2
      10      -0.00003453      -0.000000000       0.000003475             2
      11      -0.00003453       0.000000000       0.000001432             2
      12      -0.00003453       0.000000000       0.000000463             2

    CHF Iterations converged

    Ind20,r (A<-B)      =    -0.000000061461 [Eh]
    Ind20,r (B<-A)      =    -0.000000034531 [Eh]
    Ind20,r             =    -0.000000095992 [Eh]
    Exch-Ind20,r (A<-B) =     0.000000000000 [Eh]
    Exch-Ind20,r (B<-A) =     0.000000000000 [Eh]
    Exch-Ind20,r        =     0.000000000000 [Eh]
    Disp20              =    -0.000001062190 [Eh]
    Disp20 (SS)         =    -0.000000531095 [Eh]
    Disp20 (OS)         =    -0.000000531095 [Eh]
    Exch-Disp20         =     0.000000000000 [Eh]
    Exch-Disp20 (SS)    =     0.000000000000 [Eh]
    Exch-Disp20 (OS)    =     0.000000000000 [Eh]

    SAPT Results 
  --------------------------------------------------------------------------------------------------------
    Electrostatics                  0.01669782 [mEh]       0.01047804 [kcal/mol]       0.04384012 [kJ/mol]
      Elst10,r                      0.01669782 [mEh]       0.01047804 [kcal/mol]       0.04384012 [kJ/mol]

    Exchange                        0.00000000 [mEh]       0.00000000 [kcal/mol]       0.00000000 [kJ/mol]
      Exch10                        0.00000000 [mEh]       0.00000000 [kcal/mol]       0.00000000 [kJ/mol]
      Exch10(S^2)                   0.00000000 [mEh]       0.00000000 [kcal/mol]       0.00000000 [kJ/mol]

    Induction                      -0.00004612 [mEh]      -0.00002894 [kcal/mol]      -0.00012109 [kJ/mol]
      Ind20,r                      -0.00009599 [mEh]      -0.00006024 [kcal/mol]      -0.00025203 [kJ/mol]
      Exch-Ind20,r                  0.00000000 [mEh]       0.00000000 [kcal/mol]       0.00000000 [kJ/mol]
      delta HF,r (2)                0.00004987 [mEh]       0.00003129 [kcal/mol]       0.00013093 [kJ/mol]

    Dispersion                     -0.00106219 [mEh]      -0.00066653 [kcal/mol]      -0.00278878 [kJ/mol]
      Disp20                       -0.00106219 [mEh]      -0.00066653 [kcal/mol]      -0.00278878 [kJ/mol]
      Exch-Disp20                   0.00000000 [mEh]       0.00000000 [kcal/mol]       0.00000000 [kJ/mol]
      Disp20 (SS)                  -0.00053109 [mEh]      -0.00033327 [kcal/mol]      -0.00139439 [kJ/mol]
      Disp20 (OS)                  -0.00053109 [mEh]      -0.00033327 [kcal/mol]      -0.00139439 [kJ/mol]
      Exch-Disp20 (SS)              0.00000000 [mEh]       0.00000000 [kcal/mol]       0.00000000 [kJ/mol]
      Exch-Disp20 (OS)              0.00000000 [mEh]       0.00000000 [kcal/mol]       0.00000000 [kJ/mol]

  Total HF                          0.01665170 [mEh]       0.01044910 [kcal/mol]       0.04371903 [kJ/mol]
  Total SAPT0                       0.01558951 [mEh]       0.00978256 [kcal/mol]       0.04093025 [kJ/mol]

  Special recipe for scaled SAPT0 (see Manual):
    Electrostatics sSAPT0           0.01669782 [mEh]       0.01047804 [kcal/mol]       0.04384012 [kJ/mol]
    Exchange sSAPT0                 0.00000000 [mEh]       0.00000000 [kcal/mol]       0.00000000 [kJ/mol]
    Induction sSAPT0               -0.00004612 [mEh]      -0.00002894 [kcal/mol]      -0.00012109 [kJ/mol]
    Dispersion sSAPT0              -0.00106219 [mEh]      -0.00066653 [kcal/mol]      -0.00278878 [kJ/mol]
  Total sSAPT0                      0.01558951 [mEh]       0.00978256 [kcal/mol]       0.04093025 [kJ/mol]
  --------------------------------------------------------------------------------------------------------

*** tstop() called on ds1 at Mon Oct  4 15:45:03 2021
Module time:
	user time   =      46.15 seconds =       0.77 minutes
	system time =       4.16 seconds =       0.07 minutes
	total time  =          9 seconds =       0.15 minutes
Total time:
	user time   =     101.33 seconds =       1.69 minutes
	system time =       5.36 seconds =       0.09 minutes
	total time  =         21 seconds =       0.35 minutes


Warning! sapt0 does not have an associated derived wavefunction.The returned wavefunction is the dimer SCF wavefunction.


    Psi4 stopped on: Monday, 04 October 2021 03:45PM
    Psi4 wall time for execution: 0:00:21.54

*** Psi4 exiting successfully. Buy a developer a beer!
