
    -----------------------------------------------------------------------
          Psi4: An Open-Source Ab Initio Electronic Structure Package
                               Psi4 1.4rc3 

                         Git: Rev {HEAD} 080dba6 


    D. G. A. Smith, L. A. Burns, A. C. Simmonett, R. M. Parrish,
    M. C. Schieber, R. Galvelis, P. Kraus, H. Kruse, R. Di Remigio,
    A. Alenaizan, A. M. James, S. Lehtola, J. P. Misiewicz, M. Scheurer,
    R. A. Shaw, J. B. Schriber, Y. Xie, Z. L. Glick, D. A. Sirianni,
    J. S. O'Brien, J. M. Waldrop, A. Kumar, E. G. Hohenstein,
    B. P. Pritchard, B. R. Brooks, H. F. Schaefer III, A. Yu. Sokolov,
    K. Patkowski, A. E. DePrince III, U. Bozkaya, R. A. King,
    F. A. Evangelista, J. M. Turney, T. D. Crawford, C. D. Sherrill,
    J. Chem. Phys. 152(18) 184108 (2020). https://doi.org/10.1063/5.0006002

                            Additional Code Authors
    E. T. Seidl, C. L. Janssen, E. F. Valeev, M. L. Leininger,
    J. F. Gonthier, R. M. Richard, H. R. McAlexander, M. Saitow, X. Wang,
    P. Verma, and M. H. Lechner

             Previous Authors, Complete List of Code Contributors,
                       and Citations for Specific Modules
    https://github.com/psi4/psi4/blob/master/codemeta.json
    https://github.com/psi4/psi4/graphs/contributors
    http://psicode.org/psi4manual/master/introduction.html#citing-psifour

    -----------------------------------------------------------------------


    Psi4 started on: Monday, 04 October 2021 03:39PM

    Process ID: 13505
    Host:       ds1
    PSIDATADIR: /theoryfs2/ds/csargent/miniconda3/envs/cle/share/psi4
    Memory:     500.0 MiB
    Threads:    6
    
  ==> Input File <==

--------------------------------------------------------------------------
# PSI4 file produced by CrystaLattE

# Generated from:               pyrazole.xyz
# Psithon input for N-mer:      2mer-0+118
# Number of atoms per monomer:  [9, 9]
# Number of replicas:           2
# COM priority:                 3.542686066818e-05
# Minimum COM separations:      16.112 
# Separation priority:          6.849211585416e-05
# Minimum monomer separations:  12.934 
# Cutoff priority:              2.802339683501e-06
# Nuclear repulsion energy:     375.9021598091267

memory 7 GB

molecule Dimer_0_118 {
  N            6.27981210      -4.25303372       0.19313865 
  N            6.06870777      -2.28125697       1.80544317 
  H            3.66871156      -5.64628941      -1.96684001 
  H            0.69034521      -2.37545694      -0.42864236 
  H            3.35917442       0.17650601       3.09265017 
  H            7.35266782      -1.99461311       2.90680702 
  C            3.77952586      -1.21508453       1.76858172 
  C            2.38242998      -2.55505538       0.04607681 
  C            4.01771468      -4.38410490      -0.88761863 
--
  N           -9.19704487      16.25449114     -19.00553393 
  N           -9.40814920      14.28271439     -17.39322940 
  H          -11.80814541      17.64774683     -21.16551258 
  H          -14.78651176      14.37691436     -19.62731493 
  H          -12.11768255      11.82495140     -16.10602240 
  H           -8.12418914      13.99607052     -16.29186555 
  C          -11.69733111      13.21654194     -17.43009085 
  C          -13.09442699      14.55651280     -19.15259576 
  C          -11.45914228      16.38556231     -20.08629120 
units = au
no_com
no_reorient
}

set {
  e_convergence 10
  d_convergence 10
  scf_type df
  mp2_type df
  cc_type df
  freeze_core true
}

energy('sapt0/aug-cc-pvdz')

--------------------------------------------------------------------------

  Memory set to   6.519 GiB by Python driver.

Scratch directory: /scratch/csargent/psi4.7158.66302/

Scratch directory: /scratch/csargent/psi4.7158.66302/

  //>>>>>>>>>>>>>>>>>>>>>>>>>>>>>>>>>>>//
  //              Dimer HF             //
  //<<<<<<<<<<<<<<<<<<<<<<<<<<<<<<<<<<<//


*** tstart() called on ds1
*** at Mon Oct  4 15:39:58 2021

   => Loading Basis Set <=

    Name: AUG-CC-PVDZ
    Role: ORBITAL
    Keyword: BASIS
    atoms 1-2, 10-11 entry N          line   218 file /theoryfs2/ds/csargent/miniconda3/envs/cle/share/psi4/basis/aug-cc-pvdz.gbs 
    atoms 3-6, 12-15 entry H          line    40 file /theoryfs2/ds/csargent/miniconda3/envs/cle/share/psi4/basis/aug-cc-pvdz.gbs 
    atoms 7-9, 16-18 entry C          line   182 file /theoryfs2/ds/csargent/miniconda3/envs/cle/share/psi4/basis/aug-cc-pvdz.gbs 


         ---------------------------------------------------------
                                   SCF
               by Justin Turney, Rob Parrish, Andy Simmonett
                          and Daniel G. A. Smith
                              RHF Reference
                        6 Threads,   6675 MiB Core
         ---------------------------------------------------------

  ==> Geometry <==

    Molecular point group: c1
    Full point group: C1

    Geometry (in Bohr), charge = 0, multiplicity = 1:

       Center              X                  Y                   Z               Mass       
    ------------   -----------------  -----------------  -----------------  -----------------
         N            6.279812100000    -4.253033720000     0.193138650000    14.003074004430
         N            6.068707770000    -2.281256970000     1.805443170000    14.003074004430
         H            3.668711560000    -5.646289410000    -1.966840010000     1.007825032230
         H            0.690345210000    -2.375456940000    -0.428642360000     1.007825032230
         H            3.359174420000     0.176506010000     3.092650170000     1.007825032230
         H            7.352667820000    -1.994613110000     2.906807020000     1.007825032230
         C            3.779525860000    -1.215084530000     1.768581720000    12.000000000000
         C            2.382429980000    -2.555055380000     0.046076810000    12.000000000000
         C            4.017714680000    -4.384104900000    -0.887618630000    12.000000000000
         N           -9.197044870000    16.254491140000   -19.005533930000    14.003074004430
         N           -9.408149200000    14.282714390000   -17.393229400000    14.003074004430
         H          -11.808145410000    17.647746830000   -21.165512580000     1.007825032230
         H          -14.786511760000    14.376914360000   -19.627314930000     1.007825032230
         H          -12.117682550000    11.824951400000   -16.106022400000     1.007825032230
         H           -8.124189140000    13.996070520000   -16.291865550000     1.007825032230
         C          -11.697331110000    13.216541940000   -17.430090850000    12.000000000000
         C          -13.094426990000    14.556512800000   -19.152595760000    12.000000000000
         C          -11.459142280000    16.385562310000   -20.086291200000    12.000000000000

  Running in c1 symmetry.

  Rotational constants: A =      0.04388  B =      0.00124  C =      0.00122 [cm^-1]
  Rotational constants: A =   1315.47108  B =     37.29812  C =     36.65802 [MHz]
  Nuclear repulsion =  375.902159747169662

  Charge       = 0
  Multiplicity = 1
  Electrons    = 72
  Nalpha       = 36
  Nbeta        = 36

  ==> Algorithm <==

  SCF Algorithm Type is DF.
  DIIS enabled.
  MOM disabled.
  Fractional occupation disabled.
  Guess Type is SAD.
  Energy threshold   = 1.00e-10
  Density threshold  = 1.00e-10
  Integral threshold = 1.00e-12

  ==> Primary Basis <==

  Basis Set: AUG-CC-PVDZ
    Blend: AUG-CC-PVDZ
    Number of shells: 130
    Number of basis functions: 302
    Number of Cartesian functions: 322
    Spherical Harmonics?: true
    Max angular momentum: 2

   => Loading Basis Set <=

    Name: (AUG-CC-PVDZ AUX)
    Role: JKFIT
    Keyword: DF_BASIS_SCF
    atoms 1-2, 10-11 entry N          line   212 file /theoryfs2/ds/csargent/miniconda3/envs/cle/share/psi4/basis/aug-cc-pvdz-jkfit.gbs 
    atoms 3-6, 12-15 entry H          line    70 file /theoryfs2/ds/csargent/miniconda3/envs/cle/share/psi4/basis/aug-cc-pvdz-jkfit.gbs 
    atoms 7-9, 16-18 entry C          line   154 file /theoryfs2/ds/csargent/miniconda3/envs/cle/share/psi4/basis/aug-cc-pvdz-jkfit.gbs 

  ==> Integral Setup <==

  ==> DiskDFJK: Density-Fitted J/K Matrices <==

    J tasked:                  Yes
    K tasked:                  Yes
    wK tasked:                  No
    OpenMP threads:              6
    Integrals threads:           6
    Memory [MiB]:             5006
    Algorithm:                Core
    Integral Cache:           SAVE
    Schwarz Cutoff:          1E-12
    Fitting Condition:       1E-10

   => Auxiliary Basis Set <=

  Basis Set: (AUG-CC-PVDZ AUX)
    Blend: AUG-CC-PVDZ-JKFIT
    Number of shells: 376
    Number of basis functions: 1116
    Number of Cartesian functions: 1290
    Spherical Harmonics?: true
    Max angular momentum: 3

  Minimum eigenvalue in the overlap matrix is 3.0333621596E-05.
  Reciprocal condition number of the overlap matrix is 2.4874711659E-06.
    Using symmetric orthogonalization.

  ==> Pre-Iterations <==

  SCF Guess: Superposition of Atomic Densities via on-the-fly atomic UHF (no occupation information).

   -------------------------
    Irrep   Nso     Nmo    
   -------------------------
     A        302     302 
   -------------------------
    Total     302     302
   -------------------------

  ==> Iterations <==

                           Total Energy        Delta E     RMS |[F,P]|

   @DF-RHF iter SAD:  -449.44389602423234   -4.49444e+02   0.00000e+00 
   @DF-RHF iter   1:  -449.27100422772503    1.72892e-01   2.12780e-03 DIIS
   @DF-RHF iter   2:  -449.47971855047706   -2.08714e-01   9.73152e-04 DIIS
   @DF-RHF iter   3:  -449.52149569453570   -4.17771e-02   2.09962e-04 DIIS
   @DF-RHF iter   4:  -449.52426138236297   -2.76569e-03   8.54118e-05 DIIS
   @DF-RHF iter   5:  -449.52461661523228   -3.55233e-04   1.69545e-05 DIIS
   @DF-RHF iter   6:  -449.52465050885075   -3.38936e-05   7.02090e-06 DIIS
   @DF-RHF iter   7:  -449.52465842026504   -7.91141e-06   3.08547e-06 DIIS
   @DF-RHF iter   8:  -449.52465993608843   -1.51582e-06   1.43762e-06 DIIS
   @DF-RHF iter   9:  -449.52466027032744   -3.34239e-07   4.00148e-07 DIIS
   @DF-RHF iter  10:  -449.52466028790872   -1.75813e-08   1.21096e-07 DIIS
   @DF-RHF iter  11:  -449.52466028928927   -1.38056e-09   2.82854e-08 DIIS
   @DF-RHF iter  12:  -449.52466028938181   -9.25411e-11   8.23172e-09 DIIS
   @DF-RHF iter  13:  -449.52466028939079   -8.98126e-12   4.02025e-09 DIIS
   @DF-RHF iter  14:  -449.52466028939284   -2.04636e-12   1.39004e-09 DIIS
   @DF-RHF iter  15:  -449.52466028939335   -5.11591e-13   5.90439e-10 DIIS
   @DF-RHF iter  16:  -449.52466028939307    2.84217e-13   1.78857e-10 DIIS
   @DF-RHF iter  17:  -449.52466028939318   -1.13687e-13   6.41993e-11 DIIS
  Energy and wave function converged.


  ==> Post-Iterations <==

    Orbital Energies [Eh]
    ---------------------

    Doubly Occupied:                                                      

       1A    -15.637053     2A    -15.636375     3A    -15.593146  
       4A    -15.592459     5A    -11.280763     6A    -11.280054  
       7A    -11.238628     8A    -11.237927     9A    -11.210793  
      10A    -11.210045    11A     -1.387752    12A     -1.387072  
      13A     -1.122731    14A     -1.122051    15A     -1.067770  
      16A     -1.067051    17A     -0.873615    18A     -0.872917  
      19A     -0.837927    20A     -0.837210    21A     -0.758163  
      22A     -0.757453    23A     -0.646601    24A     -0.645895  
      25A     -0.621713    26A     -0.620984    27A     -0.609971  
      28A     -0.609289    29A     -0.584789    30A     -0.584077  
      31A     -0.462220    32A     -0.461547    33A     -0.371563  
      34A     -0.370866    35A     -0.346913    36A     -0.346200  

    Virtual:                                                              

      37A      0.029894    38A      0.030531    39A      0.041171  
      40A      0.042292    41A      0.048355    42A      0.049003  
      43A      0.062583    44A      0.063378    45A      0.100173  
      46A      0.100820    47A      0.103191    48A      0.103877  
      49A      0.116302    50A      0.117049    51A      0.125427  
      52A      0.126131    53A      0.131872    54A      0.133124  
      55A      0.137334    56A      0.138268    57A      0.140457  
      58A      0.141345    59A      0.155706    60A      0.156839  
      61A      0.163513    62A      0.164534    63A      0.170264  
      64A      0.170927    65A      0.177460    66A      0.178372  
      67A      0.195317    68A      0.195890    69A      0.204022  
      70A      0.204640    71A      0.205408    72A      0.206020  
      73A      0.239361    74A      0.240095    75A      0.242794  
      76A      0.243482    77A      0.244146    78A      0.244835  
      79A      0.270336    80A      0.270990    81A      0.278215  
      82A      0.278971    83A      0.300252    84A      0.300895  
      85A      0.324303    86A      0.324997    87A      0.351497  
      88A      0.352200    89A      0.354434    90A      0.355216  
      91A      0.374019    92A      0.374739    93A      0.395147  
      94A      0.395908    95A      0.401880    96A      0.402581  
      97A      0.413966    98A      0.414853    99A      0.431233  
     100A      0.432066   101A      0.442593   102A      0.443256  
     103A      0.452565   104A      0.453245   105A      0.458965  
     106A      0.459652   107A      0.477805   108A      0.478500  
     109A      0.497689   110A      0.498396   111A      0.507833  
     112A      0.508541   113A      0.521021   114A      0.521748  
     115A      0.540679   116A      0.541410   117A      0.573588  
     118A      0.574279   119A      0.585448   120A      0.586161  
     121A      0.589640   122A      0.590385   123A      0.601531  
     124A      0.602255   125A      0.620061   126A      0.620799  
     127A      0.645228   128A      0.645958   129A      0.654356  
     130A      0.655140   131A      0.675280   132A      0.676009  
     133A      0.697163   134A      0.697890   135A      0.699519  
     136A      0.700238   137A      0.720824   138A      0.721512  
     139A      0.724215   140A      0.724963   141A      0.746856  
     142A      0.747554   143A      0.757715   144A      0.758445  
     145A      0.772444   146A      0.773174   147A      0.780653  
     148A      0.781331   149A      0.827683   150A      0.828364  
     151A      0.837366   152A      0.838074   153A      0.847518  
     154A      0.848240   155A      0.880473   156A      0.881270  
     157A      0.887871   158A      0.888625   159A      0.906089  
     160A      0.906802   161A      0.923972   162A      0.924672  
     163A      0.941729   164A      0.942437   165A      0.977346  
     166A      0.978073   167A      0.983983   168A      0.984698  
     169A      1.010351   170A      1.011012   171A      1.045812  
     172A      1.046460   173A      1.065621   174A      1.066353  
     175A      1.100027   176A      1.100702   177A      1.127180  
     178A      1.127912   179A      1.133345   180A      1.134060  
     181A      1.149351   182A      1.150078   183A      1.174296  
     184A      1.175022   185A      1.219721   186A      1.220400  
     187A      1.268687   188A      1.269408   189A      1.302516  
     190A      1.303198   191A      1.310576   192A      1.311246  
     193A      1.364944   194A      1.365690   195A      1.400156  
     196A      1.400894   197A      1.473875   198A      1.474548  
     199A      1.511193   200A      1.511875   201A      1.525261  
     202A      1.525977   203A      1.560124   204A      1.560842  
     205A      1.589991   206A      1.590724   207A      1.607791  
     208A      1.608518   209A      1.636532   210A      1.637283  
     211A      1.668568   212A      1.669331   213A      1.702781  
     214A      1.703476   215A      1.723100   216A      1.723799  
     217A      1.748358   218A      1.749072   219A      1.763509  
     220A      1.764223   221A      1.804201   222A      1.804899  
     223A      1.874758   224A      1.875471   225A      1.931538  
     226A      1.932242   227A      1.942648   228A      1.943404  
     229A      1.987195   230A      1.987922   231A      2.020597  
     232A      2.021296   233A      2.056741   234A      2.057462  
     235A      2.087979   236A      2.088683   237A      2.143836  
     238A      2.144536   239A      2.189126   240A      2.189851  
     241A      2.199954   242A      2.200678   243A      2.229608  
     244A      2.230304   245A      2.274944   246A      2.275679  
     247A      2.306786   248A      2.307488   249A      2.359854  
     250A      2.360565   251A      2.388285   252A      2.388978  
     253A      2.393004   254A      2.393682   255A      2.434428  
     256A      2.435097   257A      2.464155   258A      2.464812  
     259A      2.530945   260A      2.531649   261A      2.569381  
     262A      2.570082   263A      2.583896   264A      2.584562  
     265A      2.642117   266A      2.642807   267A      2.732175  
     268A      2.732870   269A      2.825993   270A      2.826691  
     271A      2.833903   272A      2.834603   273A      2.900760  
     274A      2.901434   275A      2.917771   276A      2.918445  
     277A      2.998293   278A      2.999006   279A      3.054482  
     280A      3.055171   281A      3.091536   282A      3.092213  
     283A      3.121877   284A      3.122584   285A      3.188083  
     286A      3.188787   287A      3.221139   288A      3.221859  
     289A      3.297032   290A      3.297720   291A      3.379351  
     292A      3.380079   293A      3.519891   294A      3.520581  
     295A      3.685694   296A      3.686413   297A      3.888508  
     298A      3.889176   299A      4.208594   300A      4.209295  
     301A      4.462346   302A      4.463090  

    Final Occupation by Irrep:
              A 
    DOCC [    36 ]

  @DF-RHF Final Energy:  -449.52466028939318

   => Energetics <=

    Nuclear Repulsion Energy =            375.9021597471696623
    One-Electron Energy =               -1352.2704714311935277
    Two-Electron Energy =                 526.8436513946306832
    Total Energy =                       -449.5246602893931822

Computation Completed


Properties will be evaluated at   0.000000,   0.000000,   0.000000 [a0]

Properties computed using the SCF density matrix

  Nuclear Dipole Moment: [e a0]
     X:  -231.9897      Y:   432.0525      Z:  -644.8396

  Electronic Dipole Moment: [e a0]
     X:   231.1875      Y:  -432.0537      Z:   645.9992

  Dipole Moment: [e a0]
     X:    -0.8022      Y:    -0.0013      Z:     1.1595     Total:     1.4100

  Dipole Moment: [D]
     X:    -2.0390      Y:    -0.0032      Z:     2.9472     Total:     3.5838


*** tstop() called on ds1 at Mon Oct  4 15:40:03 2021
Module time:
	user time   =      23.24 seconds =       0.39 minutes
	system time =       0.57 seconds =       0.01 minutes
	total time  =          5 seconds =       0.08 minutes
Total time:
	user time   =      23.24 seconds =       0.39 minutes
	system time =       0.57 seconds =       0.01 minutes
	total time  =          5 seconds =       0.08 minutes

  //>>>>>>>>>>>>>>>>>>>>>>>>>>>>>>>>>>>//
  //            Monomer A HF           //
  //<<<<<<<<<<<<<<<<<<<<<<<<<<<<<<<<<<<//


*** tstart() called on ds1
*** at Mon Oct  4 15:40:03 2021

   => Loading Basis Set <=

    Name: AUG-CC-PVDZ
    Role: ORBITAL
    Keyword: BASIS
    atoms 1-2, 10-11 entry N          line   218 file /theoryfs2/ds/csargent/miniconda3/envs/cle/share/psi4/basis/aug-cc-pvdz.gbs 
    atoms 3-6, 12-15 entry H          line    40 file /theoryfs2/ds/csargent/miniconda3/envs/cle/share/psi4/basis/aug-cc-pvdz.gbs 
    atoms 7-9, 16-18 entry C          line   182 file /theoryfs2/ds/csargent/miniconda3/envs/cle/share/psi4/basis/aug-cc-pvdz.gbs 


         ---------------------------------------------------------
                                   SCF
               by Justin Turney, Rob Parrish, Andy Simmonett
                          and Daniel G. A. Smith
                              RHF Reference
                        6 Threads,   6675 MiB Core
         ---------------------------------------------------------

  ==> Geometry <==

    Molecular point group: c1
    Full point group: C1

    Geometry (in Bohr), charge = 0, multiplicity = 1:

       Center              X                  Y                   Z               Mass       
    ------------   -----------------  -----------------  -----------------  -----------------
         N            6.279812100000    -4.253033720000     0.193138650000    14.003074004430
         N            6.068707770000    -2.281256970000     1.805443170000    14.003074004430
         H            3.668711560000    -5.646289410000    -1.966840010000     1.007825032230
         H            0.690345210000    -2.375456940000    -0.428642360000     1.007825032230
         H            3.359174420000     0.176506010000     3.092650170000     1.007825032230
         H            7.352667820000    -1.994613110000     2.906807020000     1.007825032230
         C            3.779525860000    -1.215084530000     1.768581720000    12.000000000000
         C            2.382429980000    -2.555055380000     0.046076810000    12.000000000000
         C            4.017714680000    -4.384104900000    -0.887618630000    12.000000000000
      Gh(N)          -9.197044870000    16.254491140000   -19.005533930000    14.003074004430
      Gh(N)          -9.408149200000    14.282714390000   -17.393229400000    14.003074004430
      Gh(H)         -11.808145410000    17.647746830000   -21.165512580000     1.007825032230
      Gh(H)         -14.786511760000    14.376914360000   -19.627314930000     1.007825032230
      Gh(H)         -12.117682550000    11.824951400000   -16.106022400000     1.007825032230
      Gh(H)          -8.124189140000    13.996070520000   -16.291865550000     1.007825032230
      Gh(C)         -11.697331110000    13.216541940000   -17.430090850000    12.000000000000
      Gh(C)         -13.094426990000    14.556512800000   -19.152595760000    12.000000000000
      Gh(C)         -11.459142280000    16.385562310000   -20.086291200000    12.000000000000

  Running in c1 symmetry.

  Rotational constants: A =      0.04388  B =      0.00124  C =      0.00122 [cm^-1]
  Rotational constants: A =   1315.47108  B =     37.29812  C =     36.65802 [MHz]
  Nuclear repulsion =  166.624056450327203

  Charge       = 0
  Multiplicity = 1
  Electrons    = 36
  Nalpha       = 18
  Nbeta        = 18

  ==> Algorithm <==

  SCF Algorithm Type is DF.
  DIIS enabled.
  MOM disabled.
  Fractional occupation disabled.
  Guess Type is SAD.
  Energy threshold   = 1.00e-10
  Density threshold  = 1.00e-10
  Integral threshold = 1.00e-12

  ==> Primary Basis <==

  Basis Set: AUG-CC-PVDZ
    Blend: AUG-CC-PVDZ
    Number of shells: 130
    Number of basis functions: 302
    Number of Cartesian functions: 322
    Spherical Harmonics?: true
    Max angular momentum: 2

   => Loading Basis Set <=

    Name: (AUG-CC-PVDZ AUX)
    Role: JKFIT
    Keyword: DF_BASIS_SCF
    atoms 1-2, 10-11 entry N          line   212 file /theoryfs2/ds/csargent/miniconda3/envs/cle/share/psi4/basis/aug-cc-pvdz-jkfit.gbs 
    atoms 3-6, 12-15 entry H          line    70 file /theoryfs2/ds/csargent/miniconda3/envs/cle/share/psi4/basis/aug-cc-pvdz-jkfit.gbs 
    atoms 7-9, 16-18 entry C          line   154 file /theoryfs2/ds/csargent/miniconda3/envs/cle/share/psi4/basis/aug-cc-pvdz-jkfit.gbs 

  ==> Integral Setup <==

  ==> DiskDFJK: Density-Fitted J/K Matrices <==

    J tasked:                  Yes
    K tasked:                  Yes
    wK tasked:                  No
    OpenMP threads:              6
    Integrals threads:           6
    Memory [MiB]:             5006
    Algorithm:                Core
    Integral Cache:           LOAD
    Schwarz Cutoff:          1E-12
    Fitting Condition:       1E-10

   => Auxiliary Basis Set <=

  Basis Set: (AUG-CC-PVDZ AUX)
    Blend: AUG-CC-PVDZ-JKFIT
    Number of shells: 376
    Number of basis functions: 1116
    Number of Cartesian functions: 1290
    Spherical Harmonics?: true
    Max angular momentum: 3

  Minimum eigenvalue in the overlap matrix is 3.0333621596E-05.
  Reciprocal condition number of the overlap matrix is 2.4874711659E-06.
    Using symmetric orthogonalization.

  ==> Pre-Iterations <==

  SCF Guess: Superposition of Atomic Densities via on-the-fly atomic UHF (no occupation information).

   -------------------------
    Irrep   Nso     Nmo    
   -------------------------
     A        302     302 
   -------------------------
    Total     302     302
   -------------------------

  ==> Iterations <==

                           Total Energy        Delta E     RMS |[F,P]|

   @DF-RHF iter SAD:  -224.72194801435822   -2.24722e+02   0.00000e+00 
   @DF-RHF iter   1:  -224.63549170224462    8.64563e-02   1.50472e-03 DIIS
   @DF-RHF iter   2:  -224.73984613570823   -1.04354e-01   6.88462e-04 DIIS
   @DF-RHF iter   3:  -224.76075487506299   -2.09087e-02   1.48626e-04 DIIS
   @DF-RHF iter   4:  -224.76213931883194   -1.38444e-03   6.05310e-05 DIIS
   @DF-RHF iter   5:  -224.76231767358789   -1.78355e-04   1.19893e-05 DIIS
   @DF-RHF iter   6:  -224.76233463106081   -1.69575e-05   4.96772e-06 DIIS
   @DF-RHF iter   7:  -224.76233858709776   -3.95604e-06   2.18806e-06 DIIS
   @DF-RHF iter   8:  -224.76233934784014   -7.60742e-07   1.01700e-06 DIIS
   @DF-RHF iter   9:  -224.76233951548204   -1.67642e-07   2.83302e-07 DIIS
   @DF-RHF iter  10:  -224.76233952430277   -8.82073e-09   8.55547e-08 DIIS
   @DF-RHF iter  11:  -224.76233952499229   -6.89511e-10   1.99714e-08 DIIS
   @DF-RHF iter  12:  -224.76233952503861   -4.63274e-11   5.81092e-09 DIIS
   @DF-RHF iter  13:  -224.76233952504305   -4.43379e-12   2.83097e-09 DIIS
   @DF-RHF iter  14:  -224.76233952504367   -6.25278e-13   9.75191e-10 DIIS
   @DF-RHF iter  15:  -224.76233952504379   -1.13687e-13   4.15548e-10 DIIS
   @DF-RHF iter  16:  -224.76233952504393   -1.42109e-13   1.25998e-10 DIIS
   @DF-RHF iter  17:  -224.76233952504384    8.52651e-14   4.47779e-11 DIIS
  Energy and wave function converged.


  ==> Post-Iterations <==

    Orbital Energies [Eh]
    ---------------------

    Doubly Occupied:                                                      

       1A    -15.636223     2A    -15.592313     3A    -11.279894  
       4A    -11.237784     5A    -11.209891     6A     -1.386922  
       7A     -1.121901     8A     -1.066898     9A     -0.872768  
      10A     -0.837061    11A     -0.757292    12A     -0.645746  
      13A     -0.620834    14A     -0.609140    15A     -0.583920  
      16A     -0.461404    17A     -0.370721    18A     -0.346048  

    Virtual:                                                              

      19A      0.022540    20A      0.030762    21A      0.039785  
      22A      0.042400    23A      0.044037    24A      0.049164  
      25A      0.063504    26A      0.065729    27A      0.083855  
      28A      0.090632    29A      0.098832    30A      0.100998  
      31A      0.104029    32A      0.117176    33A      0.118216  
      34A      0.125658    35A      0.126284    36A      0.128103  
      37A      0.132972    38A      0.133338    39A      0.134020  
      40A      0.138403    41A      0.141500    42A      0.156906  
      43A      0.158435    44A      0.164572    45A      0.165851  
      46A      0.171076    47A      0.178398    48A      0.179098  
      49A      0.195382    50A      0.196043    51A      0.201372  
      52A      0.204793    53A      0.206162    54A      0.222838  
      55A      0.225019    56A      0.228151    57A      0.235473  
      58A      0.240238    59A      0.243627    60A      0.244967  
      61A      0.263987    62A      0.270876    63A      0.271127  
      64A      0.279096    65A      0.301018    66A      0.321835  
      67A      0.325150    68A      0.339965    69A      0.352358  
      70A      0.355357    71A      0.366426    72A      0.372788  
      73A      0.374910    74A      0.383614    75A      0.396062  
      76A      0.402741    77A      0.415015    78A      0.427365  
      79A      0.431907    80A      0.432164    81A      0.441064  
      82A      0.442212    83A      0.443385    84A      0.453393  
      85A      0.455886    86A      0.457317    87A      0.459816  
      88A      0.461777    89A      0.478655    90A      0.498543  
      91A      0.508690    92A      0.509601    93A      0.519320  
      94A      0.521922    95A      0.533012    96A      0.537944  
      97A      0.541560    98A      0.559217    99A      0.568703  
     100A      0.571728   101A      0.574434   102A      0.586319  
     103A      0.590542   104A      0.595061   105A      0.602413  
     106A      0.613287   107A      0.620950   108A      0.621155  
     109A      0.633430   110A      0.646113   111A      0.655295  
     112A      0.676163   113A      0.690720   114A      0.698042  
     115A      0.700391   116A      0.707725   117A      0.719341  
     118A      0.721669   119A      0.725121   120A      0.735553  
     121A      0.745282   122A      0.747709   123A      0.758593  
     124A      0.773318   125A      0.781481   126A      0.789612  
     127A      0.798006   128A      0.814354   129A      0.820854  
     130A      0.828505   131A      0.838231   132A      0.848394  
     133A      0.851849   134A      0.854994   135A      0.870929  
     136A      0.880977   137A      0.881403   138A      0.888769  
     139A      0.895591   140A      0.906951   141A      0.916068  
     142A      0.924815   143A      0.942583   144A      0.952018  
     145A      0.978222   146A      0.984851   147A      0.997108  
     148A      1.011149   149A      1.024126   150A      1.030195  
     151A      1.046606   152A      1.051591   153A      1.066501  
     154A      1.071060   155A      1.080960   156A      1.100854  
     157A      1.108147   158A      1.128061   159A      1.134197  
     160A      1.150235   161A      1.158770   162A      1.166280  
     163A      1.175168   164A      1.184964   165A      1.220548  
     166A      1.221694   167A      1.237012   168A      1.267987  
     169A      1.269558   170A      1.293728   171A      1.303343  
     172A      1.311400   173A      1.315146   174A      1.340684  
     175A      1.365809   176A      1.381843   177A      1.401044  
     178A      1.435000   179A      1.444720   180A      1.474691  
     181A      1.493228   182A      1.507027   183A      1.512027  
     184A      1.526129   185A      1.560989   186A      1.590883  
     187A      1.608669   188A      1.637439   189A      1.669473  
     190A      1.676728   191A      1.688908   192A      1.703634  
     193A      1.723950   194A      1.749215   195A      1.764373  
     196A      1.805049   197A      1.875633   198A      1.932390  
     199A      1.943558   200A      1.988071   201A      2.021445  
     202A      2.041088   203A      2.057613   204A      2.088839  
     205A      2.109063   206A      2.134851   207A      2.144687  
     208A      2.168127   209A      2.190005   210A      2.200827  
     211A      2.216652   212A      2.230457   213A      2.233877  
     214A      2.261880   215A      2.275825   216A      2.277783  
     217A      2.289279   218A      2.307640   219A      2.335710  
     220A      2.360716   221A      2.380611   222A      2.389130  
     223A      2.393820   224A      2.394549   225A      2.435246  
     226A      2.443888   227A      2.464967   228A      2.478337  
     229A      2.499916   230A      2.513628   231A      2.531799  
     232A      2.548832   233A      2.570232   234A      2.584716  
     235A      2.631355   236A      2.642961   237A      2.667533  
     238A      2.703026   239A      2.718898   240A      2.733029  
     241A      2.826838   242A      2.827933   243A      2.834751  
     244A      2.869808   245A      2.890043   246A      2.901587  
     247A      2.918598   248A      2.945176   249A      2.999158  
     250A      3.028079   251A      3.055324   252A      3.089852  
     253A      3.092358   254A      3.122731   255A      3.140056  
     256A      3.182000   257A      3.188934   258A      3.222008  
     259A      3.254168   260A      3.289232   261A      3.297865  
     262A      3.355796   263A      3.380239   264A      3.395637  
     265A      3.423508   266A      3.448332   267A      3.487194  
     268A      3.497532   269A      3.520729   270A      3.633614  
     271A      3.666979   272A      3.686563   273A      3.735650  
     274A      3.770113   275A      3.851180   276A      3.889327  
     277A      3.964426   278A      4.035549   279A      4.094788  
     280A      4.209429   281A      4.244117   282A      4.448470  
     283A      4.463238   284A      4.658471   285A      4.708072  
     286A      4.749964   287A      4.810818   288A      4.994904  
     289A      5.076849   290A      5.241482   291A      5.531287  
     292A      5.668994   293A      5.826873   294A      6.106742  
     295A      6.318363   296A      6.708430   297A      6.967908  
     298A     18.111224   299A     18.647901   300A     19.373622  
     301A     25.245607   302A     25.704991  

    Final Occupation by Irrep:
              A 
    DOCC [    18 ]

  @DF-RHF Final Energy:  -224.76233952504384

   => Energetics <=

    Nuclear Repulsion Energy =            166.6240564503272026
    One-Electron Energy =                -633.4992734392138800
    Two-Electron Energy =                 242.1128774638428354
    Total Energy =                       -224.7623395250438421

Computation Completed


Properties will be evaluated at   0.000000,   0.000000,   0.000000 [a0]

Properties computed using the SCF density matrix

  Nuclear Dipole Moment: [e a0]
     X:   162.5886      Y:  -104.5054      Z:    23.1563

  Electronic Dipole Moment: [e a0]
     X:  -162.9913      Y:   105.1370      Z:   -22.5767

  Dipole Moment: [e a0]
     X:    -0.4027      Y:     0.6317      Z:     0.5796     Total:     0.9472

  Dipole Moment: [D]
     X:    -1.0235      Y:     1.6055      Z:     1.4733     Total:     2.4075


*** tstop() called on ds1 at Mon Oct  4 15:40:07 2021
Module time:
	user time   =      17.02 seconds =       0.28 minutes
	system time =       0.67 seconds =       0.01 minutes
	total time  =          4 seconds =       0.07 minutes
Total time:
	user time   =      40.44 seconds =       0.67 minutes
	system time =       1.24 seconds =       0.02 minutes
	total time  =          9 seconds =       0.15 minutes

  //>>>>>>>>>>>>>>>>>>>>>>>>>>>>>>>>>>>//
  //            Monomer B HF           //
  //<<<<<<<<<<<<<<<<<<<<<<<<<<<<<<<<<<<//


*** tstart() called on ds1
*** at Mon Oct  4 15:40:07 2021

   => Loading Basis Set <=

    Name: AUG-CC-PVDZ
    Role: ORBITAL
    Keyword: BASIS
    atoms 1-2, 10-11 entry N          line   218 file /theoryfs2/ds/csargent/miniconda3/envs/cle/share/psi4/basis/aug-cc-pvdz.gbs 
    atoms 3-6, 12-15 entry H          line    40 file /theoryfs2/ds/csargent/miniconda3/envs/cle/share/psi4/basis/aug-cc-pvdz.gbs 
    atoms 7-9, 16-18 entry C          line   182 file /theoryfs2/ds/csargent/miniconda3/envs/cle/share/psi4/basis/aug-cc-pvdz.gbs 


         ---------------------------------------------------------
                                   SCF
               by Justin Turney, Rob Parrish, Andy Simmonett
                          and Daniel G. A. Smith
                              RHF Reference
                        6 Threads,   6675 MiB Core
         ---------------------------------------------------------

  ==> Geometry <==

    Molecular point group: c1
    Full point group: C1

    Geometry (in Bohr), charge = 0, multiplicity = 1:

       Center              X                  Y                   Z               Mass       
    ------------   -----------------  -----------------  -----------------  -----------------
      Gh(N)           6.279812100000    -4.253033720000     0.193138650000    14.003074004430
      Gh(N)           6.068707770000    -2.281256970000     1.805443170000    14.003074004430
      Gh(H)           3.668711560000    -5.646289410000    -1.966840010000     1.007825032230
      Gh(H)           0.690345210000    -2.375456940000    -0.428642360000     1.007825032230
      Gh(H)           3.359174420000     0.176506010000     3.092650170000     1.007825032230
      Gh(H)           7.352667820000    -1.994613110000     2.906807020000     1.007825032230
      Gh(C)           3.779525860000    -1.215084530000     1.768581720000    12.000000000000
      Gh(C)           2.382429980000    -2.555055380000     0.046076810000    12.000000000000
      Gh(C)           4.017714680000    -4.384104900000    -0.887618630000    12.000000000000
         N           -9.197044870000    16.254491140000   -19.005533930000    14.003074004430
         N           -9.408149200000    14.282714390000   -17.393229400000    14.003074004430
         H          -11.808145410000    17.647746830000   -21.165512580000     1.007825032230
         H          -14.786511760000    14.376914360000   -19.627314930000     1.007825032230
         H          -12.117682550000    11.824951400000   -16.106022400000     1.007825032230
         H           -8.124189140000    13.996070520000   -16.291865550000     1.007825032230
         C          -11.697331110000    13.216541940000   -17.430090850000    12.000000000000
         C          -13.094426990000    14.556512800000   -19.152595760000    12.000000000000
         C          -11.459142280000    16.385562310000   -20.086291200000    12.000000000000

  Running in c1 symmetry.

  Rotational constants: A =      0.04388  B =      0.00124  C =      0.00122 [cm^-1]
  Rotational constants: A =   1315.47108  B =     37.29812  C =     36.65802 [MHz]
  Nuclear repulsion =  166.624056380459564

  Charge       = 0
  Multiplicity = 1
  Electrons    = 36
  Nalpha       = 18
  Nbeta        = 18

  ==> Algorithm <==

  SCF Algorithm Type is DF.
  DIIS enabled.
  MOM disabled.
  Fractional occupation disabled.
  Guess Type is SAD.
  Energy threshold   = 1.00e-10
  Density threshold  = 1.00e-10
  Integral threshold = 1.00e-12

  ==> Primary Basis <==

  Basis Set: AUG-CC-PVDZ
    Blend: AUG-CC-PVDZ
    Number of shells: 130
    Number of basis functions: 302
    Number of Cartesian functions: 322
    Spherical Harmonics?: true
    Max angular momentum: 2

   => Loading Basis Set <=

    Name: (AUG-CC-PVDZ AUX)
    Role: JKFIT
    Keyword: DF_BASIS_SCF
    atoms 1-2, 10-11 entry N          line   212 file /theoryfs2/ds/csargent/miniconda3/envs/cle/share/psi4/basis/aug-cc-pvdz-jkfit.gbs 
    atoms 3-6, 12-15 entry H          line    70 file /theoryfs2/ds/csargent/miniconda3/envs/cle/share/psi4/basis/aug-cc-pvdz-jkfit.gbs 
    atoms 7-9, 16-18 entry C          line   154 file /theoryfs2/ds/csargent/miniconda3/envs/cle/share/psi4/basis/aug-cc-pvdz-jkfit.gbs 

  ==> Integral Setup <==

  ==> DiskDFJK: Density-Fitted J/K Matrices <==

    J tasked:                  Yes
    K tasked:                  Yes
    wK tasked:                  No
    OpenMP threads:              6
    Integrals threads:           6
    Memory [MiB]:             5006
    Algorithm:                Core
    Integral Cache:           LOAD
    Schwarz Cutoff:          1E-12
    Fitting Condition:       1E-10

   => Auxiliary Basis Set <=

  Basis Set: (AUG-CC-PVDZ AUX)
    Blend: AUG-CC-PVDZ-JKFIT
    Number of shells: 376
    Number of basis functions: 1116
    Number of Cartesian functions: 1290
    Spherical Harmonics?: true
    Max angular momentum: 3

  Minimum eigenvalue in the overlap matrix is 3.0333621596E-05.
  Reciprocal condition number of the overlap matrix is 2.4874711659E-06.
    Using symmetric orthogonalization.

  ==> Pre-Iterations <==

  SCF Guess: Superposition of Atomic Densities via on-the-fly atomic UHF (no occupation information).

   -------------------------
    Irrep   Nso     Nmo    
   -------------------------
     A        302     302 
   -------------------------
    Total     302     302
   -------------------------

  ==> Iterations <==

                           Total Energy        Delta E     RMS |[F,P]|

   @DF-RHF iter SAD:  -224.72194800831454   -2.24722e+02   0.00000e+00 
   @DF-RHF iter   1:  -224.63549170433996    8.64563e-02   1.50472e-03 DIIS
   @DF-RHF iter   2:  -224.73984613748195   -1.04354e-01   6.88462e-04 DIIS
   @DF-RHF iter   3:  -224.76075487672617   -2.09087e-02   1.48626e-04 DIIS
   @DF-RHF iter   4:  -224.76213932052366   -1.38444e-03   6.05310e-05 DIIS
   @DF-RHF iter   5:  -224.76231767528628   -1.78355e-04   1.19893e-05 DIIS
   @DF-RHF iter   6:  -224.76233463276137   -1.69575e-05   4.96772e-06 DIIS
   @DF-RHF iter   7:  -224.76233858879979   -3.95604e-06   2.18806e-06 DIIS
   @DF-RHF iter   8:  -224.76233934954200   -7.60742e-07   1.01700e-06 DIIS
   @DF-RHF iter   9:  -224.76233951718368   -1.67642e-07   2.83302e-07 DIIS
   @DF-RHF iter  10:  -224.76233952600458   -8.82090e-09   8.55547e-08 DIIS
   @DF-RHF iter  11:  -224.76233952669409   -6.89511e-10   1.99714e-08 DIIS
   @DF-RHF iter  12:  -224.76233952674050   -4.64127e-11   5.81092e-09 DIIS
   @DF-RHF iter  13:  -224.76233952674463   -4.12115e-12   2.83097e-09 DIIS
   @DF-RHF iter  14:  -224.76233952674542   -7.95808e-13   9.75191e-10 DIIS
   @DF-RHF iter  15:  -224.76233952674556   -1.42109e-13   4.15547e-10 DIIS
   @DF-RHF iter  16:  -224.76233952674562   -5.68434e-14   1.25998e-10 DIIS
   @DF-RHF iter  17:  -224.76233952674590   -2.84217e-13   4.47777e-11 DIIS
  Energy and wave function converged.


  ==> Post-Iterations <==

    Orbital Energies [Eh]
    ---------------------

    Doubly Occupied:                                                      

       1A    -15.636223     2A    -15.592313     3A    -11.279894  
       4A    -11.237784     5A    -11.209891     6A     -1.386922  
       7A     -1.121901     8A     -1.066898     9A     -0.872768  
      10A     -0.837061    11A     -0.757292    12A     -0.645746  
      13A     -0.620834    14A     -0.609140    15A     -0.583920  
      16A     -0.461404    17A     -0.370721    18A     -0.346048  

    Virtual:                                                              

      19A      0.021812    20A      0.030744    21A      0.039226  
      22A      0.042261    23A      0.043266    24A      0.049159  
      25A      0.063507    26A      0.064998    27A      0.083139  
      28A      0.090002    29A      0.098126    30A      0.100999  
      31A      0.104029    32A      0.117178    33A      0.117440  
      34A      0.124942    35A      0.126267    36A      0.127251  
      37A      0.132455    38A      0.132538    39A      0.133774  
      40A      0.138406    41A      0.141510    42A      0.156856  
      43A      0.157607    44A      0.164562    45A      0.165088  
      46A      0.171075    47A      0.178040    48A      0.178730  
      49A      0.194786    50A      0.196042    51A      0.200827  
      52A      0.204793    53A      0.206162    54A      0.222253  
      55A      0.224286    56A      0.227456    57A      0.234798  
      58A      0.240237    59A      0.243626    60A      0.244966  
      61A      0.263305    62A      0.270230    63A      0.271134  
      64A      0.279102    65A      0.301010    66A      0.321176  
      67A      0.325149    68A      0.339234    69A      0.352363  
      70A      0.355360    71A      0.365751    72A      0.372008  
      73A      0.374909    74A      0.382890    75A      0.396074  
      76A      0.402741    77A      0.414998    78A      0.426643  
      79A      0.431219    80A      0.432141    81A      0.440216  
      82A      0.441384    83A      0.443390    84A      0.453392  
      85A      0.455232    86A      0.456602    87A      0.459816  
      88A      0.461101    89A      0.478656    90A      0.498544  
      91A      0.508690    92A      0.508922    93A      0.518669  
      94A      0.521917    95A      0.532382    96A      0.537192  
      97A      0.541561    98A      0.558474    99A      0.568103  
     100A      0.570959   101A      0.574453   102A      0.586320  
     103A      0.590540   104A      0.594325   105A      0.602414  
     106A      0.612496   107A      0.620468   108A      0.620953  
     109A      0.632712   110A      0.646111   111A      0.655299  
     112A      0.676162   113A      0.690027   114A      0.698041  
     115A      0.700391   116A      0.707047   117A      0.718598  
     118A      0.721668   119A      0.725115   120A      0.734805  
     121A      0.744531   122A      0.747709   123A      0.758592  
     124A      0.773319   125A      0.781482   126A      0.788936  
     127A      0.797328   128A      0.813593   129A      0.820118  
     130A      0.828505   131A      0.838231   132A      0.848394  
     133A      0.851060   134A      0.854268   135A      0.870151  
     136A      0.880231   137A      0.881398   138A      0.888770  
     139A      0.894894   140A      0.906951   141A      0.915365  
     142A      0.924820   143A      0.942583   144A      0.951344  
     145A      0.978222   146A      0.984851   147A      0.996412  
     148A      1.011149   149A      1.023401   150A      1.029547  
     151A      1.046605   152A      1.050928   153A      1.066503  
     154A      1.070254   155A      1.080178   156A      1.100853  
     157A      1.107493   158A      1.128058   159A      1.134200  
     160A      1.150236   161A      1.158120   162A      1.165614  
     163A      1.175168   164A      1.184242   165A      1.220547  
     166A      1.221094   167A      1.236357   168A      1.267327  
     169A      1.269557   170A      1.293127   171A      1.303342  
     172A      1.311399   173A      1.314457   174A      1.339998  
     175A      1.365810   176A      1.381155   177A      1.401044  
     178A      1.434378   179A      1.444085   180A      1.474693  
     181A      1.492568   182A      1.506397   183A      1.512027  
     184A      1.526129   185A      1.560990   186A      1.590883  
     187A      1.608669   188A      1.637437   189A      1.669474  
     190A      1.676094   191A      1.688302   192A      1.703634  
     193A      1.723950   194A      1.749217   195A      1.764374  
     196A      1.805049   197A      1.875633   198A      1.932393  
     199A      1.943558   200A      1.988067   201A      2.021445  
     202A      2.040307   203A      2.057612   204A      2.088839  
     205A      2.108320   206A      2.134104   207A      2.144688  
     208A      2.167268   209A      2.190006   210A      2.200827  
     211A      2.215906   212A      2.230457   213A      2.233083  
     214A      2.261123   215A      2.275825   216A      2.277027  
     217A      2.288522   218A      2.307640   219A      2.334991  
     220A      2.360716   221A      2.379869   222A      2.389130  
     223A      2.393730   224A      2.393896   225A      2.435246  
     226A      2.443133   227A      2.464967   228A      2.477574  
     229A      2.499096   230A      2.513046   231A      2.531798  
     232A      2.548035   233A      2.570232   234A      2.584717  
     235A      2.630642   236A      2.642961   237A      2.666840  
     238A      2.702356   239A      2.718182   240A      2.733029  
     241A      2.826837   242A      2.827206   243A      2.834751  
     244A      2.869165   245A      2.889302   246A      2.901587  
     247A      2.918598   248A      2.944473   249A      2.999157  
     250A      3.027366   251A      3.055325   252A      3.089164  
     253A      3.092361   254A      3.122733   255A      3.139306  
     256A      3.181304   257A      3.188930   258A      3.222008  
     259A      3.253507   260A      3.288587   261A      3.297865  
     262A      3.355156   263A      3.380235   264A      3.394993  
     265A      3.422889   266A      3.447634   267A      3.486495  
     268A      3.496769   269A      3.520728   270A      3.632986  
     271A      3.666314   272A      3.686563   273A      3.734948  
     274A      3.769496   275A      3.850580   276A      3.889327  
     277A      3.963696   278A      4.034955   279A      4.094143  
     280A      4.209430   281A      4.243447   282A      4.447806  
     283A      4.463236   284A      4.657865   285A      4.707448  
     286A      4.749242   287A      4.810161   288A      4.994223  
     289A      5.076205   290A      5.240802   291A      5.530628  
     292A      5.668387   293A      5.826214   294A      6.106097  
     295A      6.317552   296A      6.707711   297A      6.967286  
     298A     18.110445   299A     18.647175   300A     19.372854  
     301A     25.245017   302A     25.704405  

    Final Occupation by Irrep:
              A 
    DOCC [    18 ]

  @DF-RHF Final Energy:  -224.76233952674590

   => Energetics <=

    Nuclear Repulsion Energy =            166.6240563804595638
    One-Electron Energy =                -633.4992732841445786
    Two-Electron Energy =                 242.1128773769390818
    Total Energy =                       -224.7623395267459045

Computation Completed


Properties will be evaluated at   0.000000,   0.000000,   0.000000 [a0]

Properties computed using the SCF density matrix

  Nuclear Dipole Moment: [e a0]
     X:  -394.5783      Y:   536.5578      Z:  -667.9959

  Electronic Dipole Moment: [e a0]
     X:   394.1756      Y:  -537.1895      Z:   668.5755

  Dipole Moment: [e a0]
     X:    -0.4027      Y:    -0.6317      Z:     0.5796     Total:     0.9472

  Dipole Moment: [D]
     X:    -1.0235      Y:    -1.6055      Z:     1.4733     Total:     2.4075


*** tstop() called on ds1 at Mon Oct  4 15:40:11 2021
Module time:
	user time   =      16.69 seconds =       0.28 minutes
	system time =       0.39 seconds =       0.01 minutes
	total time  =          4 seconds =       0.07 minutes
Total time:
	user time   =      57.16 seconds =       0.95 minutes
	system time =       1.63 seconds =       0.03 minutes
	total time  =         13 seconds =       0.22 minutes
  Constructing Basis Sets for SAPT...

   => Loading Basis Set <=

    Name: (AUG-CC-PVDZ AUX)
    Role: RIFIT
    Keyword: DF_BASIS_SAPT
    atoms 1-2, 10-11 entry N          line   158 file /theoryfs2/ds/csargent/miniconda3/envs/cle/share/psi4/basis/aug-cc-pvdz-ri.gbs 
    atoms 3-6, 12-15 entry H          line    30 file /theoryfs2/ds/csargent/miniconda3/envs/cle/share/psi4/basis/aug-cc-pvdz-ri.gbs 
    atoms 7-9, 16-18 entry C          line   112 file /theoryfs2/ds/csargent/miniconda3/envs/cle/share/psi4/basis/aug-cc-pvdz-ri.gbs 


  //>>>>>>>>>>>>>>>>>>>>>>>>>>>>>>>>>>>//
  //               SAPT0               //
  //<<<<<<<<<<<<<<<<<<<<<<<<<<<<<<<<<<<//


*** tstart() called on ds1
*** at Mon Oct  4 15:40:11 2021

        SAPT0  
    Ed Hohenstein
     6 June 2009

      Orbital Information
  --------------------------
    NSO        =       302
    NMO        =       302
    NRI        =       904
    NOCC A     =        18
    NOCC B     =        18
    FOCC A     =         5
    FOCC B     =         5
    NVIR A     =       284
    NVIR B     =       284

    Elst10,r            =     0.000018842247 [Eh]
    Exch10              =     0.000000000006 [Eh]
    Exch10 (S^2)        =     0.000000000006 [Eh]

    Iter     Energy [mEh]          dE [mEh]         Residual      Time [s]
       1      -0.00011798       0.000117985       0.122498120             0
       2      -0.00010849      -0.000009499       0.029320413             0
       3      -0.00011970       0.000011215       0.010331312             0
       4      -0.00012100       0.000001297       0.002838712             0
       5      -0.00012076      -0.000000242       0.001336919             0
       6      -0.00012066      -0.000000097       0.000472586             0
       7      -0.00012067       0.000000008       0.000220981             1
       8      -0.00012069       0.000000020       0.000087464             1
       9      -0.00012069      -0.000000000       0.000029834             1
      10      -0.00012068      -0.000000003       0.000006671             1
      11      -0.00012068       0.000000000       0.000002817             1
      12      -0.00012068       0.000000000       0.000000812             1

    CHF Iterations converged


    Iter     Energy [mEh]          dE [mEh]         Residual      Time [s]
       1      -0.00001611       0.000016111       0.037998428             0
       2      -0.00001480      -0.000001309       0.009507144             0
       3      -0.00001580       0.000000997       0.004946251             1
       4      -0.00001621       0.000000412       0.000994134             1
       5      -0.00001616      -0.000000052       0.000653527             1
       6      -0.00001614      -0.000000018       0.000226687             1
       7      -0.00001615       0.000000008       0.000098098             1
       8      -0.00001615       0.000000001       0.000032229             1
       9      -0.00001615      -0.000000000       0.000007454             1
      10      -0.00001615      -0.000000000       0.000002071             1
      11      -0.00001615       0.000000000       0.000000773             2

    CHF Iterations converged

    Ind20,r (A<-B)      =    -0.000000120684 [Eh]
    Ind20,r (B<-A)      =    -0.000000016151 [Eh]
    Ind20,r             =    -0.000000136835 [Eh]
    Exch-Ind20,r (A<-B) =     0.000000000004 [Eh]
    Exch-Ind20,r (B<-A) =     0.000000000005 [Eh]
    Exch-Ind20,r        =     0.000000000009 [Eh]
    Disp20              =    -0.000001609241 [Eh]
    Disp20 (SS)         =    -0.000000804620 [Eh]
    Disp20 (OS)         =    -0.000000804620 [Eh]
    Exch-Disp20         =     0.000000000000 [Eh]
    Exch-Disp20 (SS)    =     0.000000000000 [Eh]
    Exch-Disp20 (OS)    =     0.000000000000 [Eh]

    SAPT Results 
  --------------------------------------------------------------------------------------------------------
    Electrostatics                  0.01884225 [mEh]       0.01182369 [kcal/mol]       0.04947031 [kJ/mol]
      Elst10,r                      0.01884225 [mEh]       0.01182369 [kcal/mol]       0.04947031 [kJ/mol]

    Exchange                        0.00000001 [mEh]       0.00000000 [kcal/mol]       0.00000002 [kJ/mol]
      Exch10                        0.00000001 [mEh]       0.00000000 [kcal/mol]       0.00000002 [kJ/mol]
      Exch10(S^2)                   0.00000001 [mEh]       0.00000000 [kcal/mol]       0.00000002 [kJ/mol]

    Induction                      -0.00007986 [mEh]      -0.00005011 [kcal/mol]      -0.00020966 [kJ/mol]
      Ind20,r                      -0.00013683 [mEh]      -0.00008587 [kcal/mol]      -0.00035926 [kJ/mol]
      Exch-Ind20,r                  0.00000001 [mEh]       0.00000001 [kcal/mol]       0.00000002 [kJ/mol]
      delta HF,r (2)                0.00005697 [mEh]       0.00003575 [kcal/mol]       0.00014957 [kJ/mol]

    Dispersion                     -0.00160924 [mEh]      -0.00100981 [kcal/mol]      -0.00422506 [kJ/mol]
      Disp20                       -0.00160924 [mEh]      -0.00100981 [kcal/mol]      -0.00422506 [kJ/mol]
      Exch-Disp20                   0.00000000 [mEh]       0.00000000 [kcal/mol]       0.00000000 [kJ/mol]
      Disp20 (SS)                  -0.00080462 [mEh]      -0.00050491 [kcal/mol]      -0.00211253 [kJ/mol]
      Disp20 (OS)                  -0.00080462 [mEh]      -0.00050491 [kcal/mol]      -0.00211253 [kJ/mol]
      Exch-Disp20 (SS)              0.00000000 [mEh]       0.00000000 [kcal/mol]       0.00000000 [kJ/mol]
      Exch-Disp20 (OS)              0.00000000 [mEh]       0.00000000 [kcal/mol]       0.00000000 [kJ/mol]

  Total HF                          0.01876240 [mEh]       0.01177358 [kcal/mol]       0.04926067 [kJ/mol]
  Total SAPT0                       0.01715316 [mEh]       0.01076377 [kcal/mol]       0.04503560 [kJ/mol]

  Special recipe for scaled SAPT0 (see Manual):
    Electrostatics sSAPT0           0.01884225 [mEh]       0.01182369 [kcal/mol]       0.04947031 [kJ/mol]
    Exchange sSAPT0                 0.00000001 [mEh]       0.00000000 [kcal/mol]       0.00000002 [kJ/mol]
    Induction sSAPT0               -0.00007986 [mEh]      -0.00005011 [kcal/mol]      -0.00020966 [kJ/mol]
    Dispersion sSAPT0              -0.00160924 [mEh]      -0.00100981 [kcal/mol]      -0.00422506 [kJ/mol]
  Total sSAPT0                      0.01715316 [mEh]       0.01076377 [kcal/mol]       0.04503560 [kJ/mol]
  --------------------------------------------------------------------------------------------------------

*** tstop() called on ds1 at Mon Oct  4 15:40:20 2021
Module time:
	user time   =      45.00 seconds =       0.75 minutes
	system time =       3.89 seconds =       0.06 minutes
	total time  =          9 seconds =       0.15 minutes
Total time:
	user time   =     102.81 seconds =       1.71 minutes
	system time =       5.54 seconds =       0.09 minutes
	total time  =         22 seconds =       0.37 minutes


Warning! sapt0 does not have an associated derived wavefunction.The returned wavefunction is the dimer SCF wavefunction.


    Psi4 stopped on: Monday, 04 October 2021 03:40PM
    Psi4 wall time for execution: 0:00:22.06

*** Psi4 exiting successfully. Buy a developer a beer!
