
    -----------------------------------------------------------------------
          Psi4: An Open-Source Ab Initio Electronic Structure Package
                               Psi4 1.4rc3 

                         Git: Rev {HEAD} 080dba6 


    D. G. A. Smith, L. A. Burns, A. C. Simmonett, R. M. Parrish,
    M. C. Schieber, R. Galvelis, P. Kraus, H. Kruse, R. Di Remigio,
    A. Alenaizan, A. M. James, S. Lehtola, J. P. Misiewicz, M. Scheurer,
    R. A. Shaw, J. B. Schriber, Y. Xie, Z. L. Glick, D. A. Sirianni,
    J. S. O'Brien, J. M. Waldrop, A. Kumar, E. G. Hohenstein,
    B. P. Pritchard, B. R. Brooks, H. F. Schaefer III, A. Yu. Sokolov,
    K. Patkowski, A. E. DePrince III, U. Bozkaya, R. A. King,
    F. A. Evangelista, J. M. Turney, T. D. Crawford, C. D. Sherrill,
    J. Chem. Phys. 152(18) 184108 (2020). https://doi.org/10.1063/5.0006002

                            Additional Code Authors
    E. T. Seidl, C. L. Janssen, E. F. Valeev, M. L. Leininger,
    J. F. Gonthier, R. M. Richard, H. R. McAlexander, M. Saitow, X. Wang,
    P. Verma, and M. H. Lechner

             Previous Authors, Complete List of Code Contributors,
                       and Citations for Specific Modules
    https://github.com/psi4/psi4/blob/master/codemeta.json
    https://github.com/psi4/psi4/graphs/contributors
    http://psicode.org/psi4manual/master/introduction.html#citing-psifour

    -----------------------------------------------------------------------


    Psi4 started on: Monday, 04 October 2021 03:13PM

    Process ID: 12382
    Host:       ds1
    PSIDATADIR: /theoryfs2/ds/csargent/miniconda3/envs/cle/share/psi4
    Memory:     500.0 MiB
    Threads:    6
    
  ==> Input File <==

--------------------------------------------------------------------------
# PSI4 file produced by CrystaLattE

# Generated from:               pyrazole.xyz
# Psithon input for N-mer:      2mer-0+306
# Number of atoms per monomer:  [9, 9]
# Number of replicas:           2
# COM priority:                 1.791323007902e-05
# Minimum COM separations:      20.224 
# Separation priority:          3.286543516830e-05
# Minimum monomer separations:  16.520 
# Cutoff priority:              1.052735292733e-06
# Nuclear repulsion energy:     367.2178380714206

memory 7 GB

molecule Dimer_0_306 {
  N            6.27981210      -4.25303372       0.19313865 
  N            6.06870777      -2.28125697       1.80544317 
  H            3.66871156      -5.64628941      -1.96684001 
  H            0.69034521      -2.37545694      -0.42864236 
  H            3.35917442       0.17650601       3.09265017 
  H            7.35266782      -1.99461311       2.90680702 
  C            3.77952586      -1.21508453       1.76858172 
  C            2.38242998      -2.55505538       0.04607681 
  C            4.01771468      -4.38410490      -0.88761863 
--
  N           -9.19704487      19.53483875      25.79136874 
  N           -9.40814920      21.50661550      27.40367326 
  H          -11.80814541      18.14158306      23.63139009 
  H          -14.78651176      21.41241552      25.16958773 
  H          -12.11768255      23.96437848      28.69088026 
  H           -8.12418914      21.79325936      28.50503711 
  C          -11.69733111      22.57278794      27.36681181 
  C          -13.09442699      21.23281709      25.64430691 
  C          -11.45914228      19.40376757      24.71061147 
units = au
no_com
no_reorient
}

set {
  e_convergence 10
  d_convergence 10
  scf_type df
  mp2_type df
  cc_type df
  freeze_core true
}

energy('sapt0/aug-cc-pvdz')

--------------------------------------------------------------------------

  Memory set to   6.519 GiB by Python driver.

Scratch directory: /scratch/csargent/psi4.7158.66302/

Scratch directory: /scratch/csargent/psi4.7158.66302/

  //>>>>>>>>>>>>>>>>>>>>>>>>>>>>>>>>>>>//
  //              Dimer HF             //
  //<<<<<<<<<<<<<<<<<<<<<<<<<<<<<<<<<<<//


*** tstart() called on ds1
*** at Mon Oct  4 15:13:00 2021

   => Loading Basis Set <=

    Name: AUG-CC-PVDZ
    Role: ORBITAL
    Keyword: BASIS
    atoms 1-2, 10-11 entry N          line   218 file /theoryfs2/ds/csargent/miniconda3/envs/cle/share/psi4/basis/aug-cc-pvdz.gbs 
    atoms 3-6, 12-15 entry H          line    40 file /theoryfs2/ds/csargent/miniconda3/envs/cle/share/psi4/basis/aug-cc-pvdz.gbs 
    atoms 7-9, 16-18 entry C          line   182 file /theoryfs2/ds/csargent/miniconda3/envs/cle/share/psi4/basis/aug-cc-pvdz.gbs 


         ---------------------------------------------------------
                                   SCF
               by Justin Turney, Rob Parrish, Andy Simmonett
                          and Daniel G. A. Smith
                              RHF Reference
                        6 Threads,   6675 MiB Core
         ---------------------------------------------------------

  ==> Geometry <==

    Molecular point group: c1
    Full point group: C1

    Geometry (in Bohr), charge = 0, multiplicity = 1:

       Center              X                  Y                   Z               Mass       
    ------------   -----------------  -----------------  -----------------  -----------------
         N            6.279812100000    -4.253033720000     0.193138650000    14.003074004430
         N            6.068707770000    -2.281256970000     1.805443170000    14.003074004430
         H            3.668711560000    -5.646289410000    -1.966840010000     1.007825032230
         H            0.690345210000    -2.375456940000    -0.428642360000     1.007825032230
         H            3.359174420000     0.176506010000     3.092650170000     1.007825032230
         H            7.352667820000    -1.994613110000     2.906807020000     1.007825032230
         C            3.779525860000    -1.215084530000     1.768581720000    12.000000000000
         C            2.382429980000    -2.555055380000     0.046076810000    12.000000000000
         C            4.017714680000    -4.384104900000    -0.887618630000    12.000000000000
         N           -9.197044870000    19.534838750000    25.791368740000    14.003074004430
         N           -9.408149200000    21.506615500000    27.403673260000    14.003074004430
         H          -11.808145410000    18.141583060000    23.631390090000     1.007825032230
         H          -14.786511760000    21.412415520000    25.169587730000     1.007825032230
         H          -12.117682550000    23.964378480000    28.690880260000     1.007825032230
         H           -8.124189140000    21.793259360000    28.505037110000     1.007825032230
         C          -11.697331110000    22.572787940000    27.366811810000    12.000000000000
         C          -13.094426990000    21.232817090000    25.644306910000    12.000000000000
         C          -11.459142280000    19.403767570000    24.710611470000    12.000000000000

  Running in c1 symmetry.

  Rotational constants: A =      0.03142  B =      0.00070  C =      0.00069 [cm^-1]
  Rotational constants: A =    941.97673  B =     21.13064  C =     20.69454 [MHz]
  Nuclear repulsion =  367.217838205795545

  Charge       = 0
  Multiplicity = 1
  Electrons    = 72
  Nalpha       = 36
  Nbeta        = 36

  ==> Algorithm <==

  SCF Algorithm Type is DF.
  DIIS enabled.
  MOM disabled.
  Fractional occupation disabled.
  Guess Type is SAD.
  Energy threshold   = 1.00e-10
  Density threshold  = 1.00e-10
  Integral threshold = 1.00e-12

  ==> Primary Basis <==

  Basis Set: AUG-CC-PVDZ
    Blend: AUG-CC-PVDZ
    Number of shells: 130
    Number of basis functions: 302
    Number of Cartesian functions: 322
    Spherical Harmonics?: true
    Max angular momentum: 2

   => Loading Basis Set <=

    Name: (AUG-CC-PVDZ AUX)
    Role: JKFIT
    Keyword: DF_BASIS_SCF
    atoms 1-2, 10-11 entry N          line   212 file /theoryfs2/ds/csargent/miniconda3/envs/cle/share/psi4/basis/aug-cc-pvdz-jkfit.gbs 
    atoms 3-6, 12-15 entry H          line    70 file /theoryfs2/ds/csargent/miniconda3/envs/cle/share/psi4/basis/aug-cc-pvdz-jkfit.gbs 
    atoms 7-9, 16-18 entry C          line   154 file /theoryfs2/ds/csargent/miniconda3/envs/cle/share/psi4/basis/aug-cc-pvdz-jkfit.gbs 

  ==> Integral Setup <==

  ==> DiskDFJK: Density-Fitted J/K Matrices <==

    J tasked:                  Yes
    K tasked:                  Yes
    wK tasked:                  No
    OpenMP threads:              6
    Integrals threads:           6
    Memory [MiB]:             5006
    Algorithm:                Core
    Integral Cache:           SAVE
    Schwarz Cutoff:          1E-12
    Fitting Condition:       1E-10

   => Auxiliary Basis Set <=

  Basis Set: (AUG-CC-PVDZ AUX)
    Blend: AUG-CC-PVDZ-JKFIT
    Number of shells: 376
    Number of basis functions: 1116
    Number of Cartesian functions: 1290
    Spherical Harmonics?: true
    Max angular momentum: 3

  Minimum eigenvalue in the overlap matrix is 3.0333746215E-05.
  Reciprocal condition number of the overlap matrix is 2.4874834855E-06.
    Using symmetric orthogonalization.

  ==> Pre-Iterations <==

  SCF Guess: Superposition of Atomic Densities via on-the-fly atomic UHF (no occupation information).

   -------------------------
    Irrep   Nso     Nmo    
   -------------------------
     A        302     302 
   -------------------------
    Total     302     302
   -------------------------

  ==> Iterations <==

                           Total Energy        Delta E     RMS |[F,P]|

   @DF-RHF iter SAD:  -449.44389603922269   -4.49444e+02   0.00000e+00 
   @DF-RHF iter   1:  -449.27105373821718    1.72842e-01   2.12790e-03 DIIS
   @DF-RHF iter   2:  -449.47973696892143   -2.08683e-01   9.73520e-04 DIIS
   @DF-RHF iter   3:  -449.52154332780702   -4.18064e-02   2.10206e-04 DIIS
   @DF-RHF iter   4:  -449.52431188040975   -2.76855e-03   8.56537e-05 DIIS
   @DF-RHF iter   5:  -449.52466889600578   -3.57016e-04   1.69645e-05 DIIS
   @DF-RHF iter   6:  -449.52470281727767   -3.39213e-05   7.03045e-06 DIIS
   @DF-RHF iter   7:  -449.52471072440414   -7.90713e-06   3.11178e-06 DIIS
   @DF-RHF iter   8:  -449.52471225504712   -1.53064e-06   1.43874e-06 DIIS
   @DF-RHF iter   9:  -449.52471259233590   -3.37289e-07   4.01194e-07 DIIS
   @DF-RHF iter  10:  -449.52471261006917   -1.77333e-08   1.20715e-07 DIIS
   @DF-RHF iter  11:  -449.52471261144603   -1.37686e-09   2.82049e-08 DIIS
   @DF-RHF iter  12:  -449.52471261153732   -9.12905e-11   8.20308e-09 DIIS
   @DF-RHF iter  13:  -449.52471261154591   -8.58336e-12   3.99046e-09 DIIS
   @DF-RHF iter  14:  -449.52471261154767   -1.76215e-12   1.37204e-09 DIIS
   @DF-RHF iter  15:  -449.52471261154824   -5.68434e-13   5.85629e-10 DIIS
   @DF-RHF iter  16:  -449.52471261154790    3.41061e-13   1.78045e-10 DIIS
   @DF-RHF iter  17:  -449.52471261154824   -3.41061e-13   6.34955e-11 DIIS
  Energy and wave function converged.


  ==> Post-Iterations <==

    Orbital Energies [Eh]
    ---------------------

    Doubly Occupied:                                                      

       1A    -15.636872     2A    -15.635568     3A    -15.592982  
       4A    -15.591674     5A    -11.280529     6A    -11.279224  
       7A    -11.238458     8A    -11.237157     9A    -11.210528  
      10A    -11.209233    11A     -1.387576    12A     -1.386272  
      13A     -1.122561    14A     -1.121256    15A     -1.067542  
      16A     -1.066243    17A     -0.873423    18A     -0.872124  
      19A     -0.837716    20A     -0.836416    21A     -0.757927  
      22A     -0.756619    23A     -0.646401    24A     -0.645102  
      25A     -0.621484    26A     -0.620187    27A     -0.609793  
      28A     -0.608490    29A     -0.584564    30A     -0.583258  
      31A     -0.462083    32A     -0.460773    33A     -0.371383  
      34A     -0.370083    35A     -0.346693    36A     -0.345393  

    Virtual:                                                              

      37A      0.030244    38A      0.031604    39A      0.041739  
      40A      0.042974    41A      0.048495    42A      0.049823  
      43A      0.062865    44A      0.064188    45A      0.100419  
      46A      0.101732    47A      0.103343    48A      0.104675  
      49A      0.116482    50A      0.117763    51A      0.125623  
      52A      0.126921    53A      0.132464    54A      0.133789  
      55A      0.137775    56A      0.139038    57A      0.140869  
      58A      0.142189    59A      0.156298    60A      0.157565  
      61A      0.163956    62A      0.165248    63A      0.170423  
      64A      0.171728    65A      0.177729    66A      0.179038  
      67A      0.195409    68A      0.196732    69A      0.204135  
      70A      0.205441    71A      0.205488    72A      0.206790  
      73A      0.239554    74A      0.240863    75A      0.242973  
      76A      0.244261    77A      0.244283    78A      0.245572  
      79A      0.270431    80A      0.271738    81A      0.278467  
      82A      0.279792    83A      0.300229    84A      0.301571  
      85A      0.324516    86A      0.325828    87A      0.351730  
      88A      0.353043    89A      0.354702    90A      0.355997  
      91A      0.374288    92A      0.375590    93A      0.395441  
      94A      0.396779    95A      0.402106    96A      0.403415  
      97A      0.414388    98A      0.415646    99A      0.431489  
     100A      0.432781   101A      0.442672   102A      0.443988  
     103A      0.452724   104A      0.454036   105A      0.459156  
     106A      0.460473   107A      0.478034   108A      0.479321  
     109A      0.497877   110A      0.499179   111A      0.508028  
     112A      0.509327   113A      0.521298   114A      0.522609  
     115A      0.540911   116A      0.542211   117A      0.573795  
     118A      0.575095   119A      0.585680   120A      0.586980  
     121A      0.589906   122A      0.591204   123A      0.601786  
     124A      0.603090   125A      0.620308   126A      0.621609  
     127A      0.645464   128A      0.646769   129A      0.654667  
     130A      0.655966   131A      0.675518   132A      0.676812  
     133A      0.697388   134A      0.698691   135A      0.699746  
     136A      0.701045   137A      0.721013   138A      0.722327  
     139A      0.724488   140A      0.725786   141A      0.747054  
     142A      0.748363   143A      0.757934   144A      0.759237  
     145A      0.772666   146A      0.773956   147A      0.780834  
     148A      0.782134   149A      0.827821   150A      0.829128  
     151A      0.837592   152A      0.838892   153A      0.847741  
     154A      0.849056   155A      0.880747   156A      0.882044  
     157A      0.888138   158A      0.889439   159A      0.906293  
     160A      0.907594   161A      0.924163   162A      0.925466  
     163A      0.941926   164A      0.943226   165A      0.977566  
     166A      0.978857   167A      0.984198   168A      0.985502  
     169A      1.010454   170A      1.011767   171A      1.045932  
     172A      1.047246   173A      1.065860   174A      1.067165  
     175A      1.100206   176A      1.101513   177A      1.127400  
     178A      1.128698   179A      1.133542   180A      1.134848  
     181A      1.149596   182A      1.150895   183A      1.174512  
     184A      1.175807   185A      1.219876   186A      1.221187  
     187A      1.268904   188A      1.270205   189A      1.302676  
     190A      1.303980   191A      1.310737   192A      1.312044  
     193A      1.365144   194A      1.366442   195A      1.400393  
     196A      1.401692   197A      1.474029   198A      1.475334  
     199A      1.511379   200A      1.512680   201A      1.525478  
     202A      1.526783   203A      1.560333   204A      1.561635  
     205A      1.590251   206A      1.591553   207A      1.608019  
     208A      1.609319   209A      1.636798   210A      1.638089  
     211A      1.668832   212A      1.670126   213A      1.702988  
     214A      1.704295   215A      1.723297   216A      1.724599  
     217A      1.748554   218A      1.749855   219A      1.763728  
     220A      1.765028   221A      1.804388   222A      1.805694  
     223A      1.874998   224A      1.876305   225A      1.931736  
     226A      1.933040   227A      1.942921   228A      1.944214  
     229A      1.987404   230A      1.988705   231A      2.020786  
     232A      2.022091   233A      2.056964   234A      2.058262  
     235A      2.088201   236A      2.089502   237A      2.144034  
     238A      2.145338   239A      2.189366   240A      2.190668  
     241A      2.200173   242A      2.201473   243A      2.229809  
     244A      2.231109   245A      2.275167   246A      2.276463  
     247A      2.306997   248A      2.308296   249A      2.360060  
     250A      2.361364   251A      2.388474   252A      2.389783  
     253A      2.393181   254A      2.394489   255A      2.434588  
     256A      2.435894   257A      2.464320   258A      2.465624  
     259A      2.531145   260A      2.532445   261A      2.569576  
     262A      2.570878   263A      2.584068   264A      2.585377  
     265A      2.642313   266A      2.643618   267A      2.732393  
     268A      2.733699   269A      2.826175   270A      2.827478  
     271A      2.834092   272A      2.835394   273A      2.900930  
     274A      2.902238   275A      2.917950   276A      2.919256  
     277A      2.998511   278A      2.999810   279A      3.054674  
     280A      3.055981   281A      3.091692   282A      3.092999  
     283A      3.122079   284A      3.123384   285A      3.188262  
     286A      3.189564   287A      3.221358   288A      3.222656  
     289A      3.297197   290A      3.298500   291A      3.379602  
     292A      3.380900   293A      3.520070   294A      3.521375  
     295A      3.685911   296A      3.687209   297A      3.888669  
     298A      3.889977   299A      4.208760   300A      4.210066  
     301A      4.462589   302A      4.463886  

    Final Occupation by Irrep:
              A 
    DOCC [    36 ]

  @DF-RHF Final Energy:  -449.52471261154824

   => Energetics <=

    Nuclear Repulsion Energy =            367.2178382057955446
    One-Electron Energy =               -1334.9379294989403206
    Two-Electron Energy =                 518.1953786815965941
    Total Energy =                       -449.5247126115482388

Computation Completed


Properties will be evaluated at   0.000000,   0.000000,   0.000000 [a0]

Properties computed using the SCF density matrix

  Nuclear Dipole Moment: [e a0]
     X:  -231.9897      Y:   647.3527      Z:   967.8489

  Electronic Dipole Moment: [e a0]
     X:   231.1832      Y:  -646.0871      Z:  -966.6874

  Dipole Moment: [e a0]
     X:    -0.8066      Y:     1.2655      Z:     1.1615     Total:     1.8977

  Dipole Moment: [D]
     X:    -2.0501      Y:     3.2167      Z:     2.9521     Total:     4.8234


*** tstop() called on ds1 at Mon Oct  4 15:13:05 2021
Module time:
	user time   =      21.89 seconds =       0.36 minutes
	system time =       0.57 seconds =       0.01 minutes
	total time  =          5 seconds =       0.08 minutes
Total time:
	user time   =      21.89 seconds =       0.36 minutes
	system time =       0.57 seconds =       0.01 minutes
	total time  =          5 seconds =       0.08 minutes

  //>>>>>>>>>>>>>>>>>>>>>>>>>>>>>>>>>>>//
  //            Monomer A HF           //
  //<<<<<<<<<<<<<<<<<<<<<<<<<<<<<<<<<<<//


*** tstart() called on ds1
*** at Mon Oct  4 15:13:05 2021

   => Loading Basis Set <=

    Name: AUG-CC-PVDZ
    Role: ORBITAL
    Keyword: BASIS
    atoms 1-2, 10-11 entry N          line   218 file /theoryfs2/ds/csargent/miniconda3/envs/cle/share/psi4/basis/aug-cc-pvdz.gbs 
    atoms 3-6, 12-15 entry H          line    40 file /theoryfs2/ds/csargent/miniconda3/envs/cle/share/psi4/basis/aug-cc-pvdz.gbs 
    atoms 7-9, 16-18 entry C          line   182 file /theoryfs2/ds/csargent/miniconda3/envs/cle/share/psi4/basis/aug-cc-pvdz.gbs 


         ---------------------------------------------------------
                                   SCF
               by Justin Turney, Rob Parrish, Andy Simmonett
                          and Daniel G. A. Smith
                              RHF Reference
                        6 Threads,   6675 MiB Core
         ---------------------------------------------------------

  ==> Geometry <==

    Molecular point group: c1
    Full point group: C1

    Geometry (in Bohr), charge = 0, multiplicity = 1:

       Center              X                  Y                   Z               Mass       
    ------------   -----------------  -----------------  -----------------  -----------------
         N            6.279812100000    -4.253033720000     0.193138650000    14.003074004430
         N            6.068707770000    -2.281256970000     1.805443170000    14.003074004430
         H            3.668711560000    -5.646289410000    -1.966840010000     1.007825032230
         H            0.690345210000    -2.375456940000    -0.428642360000     1.007825032230
         H            3.359174420000     0.176506010000     3.092650170000     1.007825032230
         H            7.352667820000    -1.994613110000     2.906807020000     1.007825032230
         C            3.779525860000    -1.215084530000     1.768581720000    12.000000000000
         C            2.382429980000    -2.555055380000     0.046076810000    12.000000000000
         C            4.017714680000    -4.384104900000    -0.887618630000    12.000000000000
      Gh(N)          -9.197044870000    19.534838750000    25.791368740000    14.003074004430
      Gh(N)          -9.408149200000    21.506615500000    27.403673260000    14.003074004430
      Gh(H)         -11.808145410000    18.141583060000    23.631390090000     1.007825032230
      Gh(H)         -14.786511760000    21.412415520000    25.169587730000     1.007825032230
      Gh(H)         -12.117682550000    23.964378480000    28.690880260000     1.007825032230
      Gh(H)          -8.124189140000    21.793259360000    28.505037110000     1.007825032230
      Gh(C)         -11.697331110000    22.572787940000    27.366811810000    12.000000000000
      Gh(C)         -13.094426990000    21.232817090000    25.644306910000    12.000000000000
      Gh(C)         -11.459142280000    19.403767570000    24.710611470000    12.000000000000

  Running in c1 symmetry.

  Rotational constants: A =      0.03142  B =      0.00070  C =      0.00069 [cm^-1]
  Rotational constants: A =    941.97673  B =     21.13064  C =     20.69454 [MHz]
  Nuclear repulsion =  166.624056450327203

  Charge       = 0
  Multiplicity = 1
  Electrons    = 36
  Nalpha       = 18
  Nbeta        = 18

  ==> Algorithm <==

  SCF Algorithm Type is DF.
  DIIS enabled.
  MOM disabled.
  Fractional occupation disabled.
  Guess Type is SAD.
  Energy threshold   = 1.00e-10
  Density threshold  = 1.00e-10
  Integral threshold = 1.00e-12

  ==> Primary Basis <==

  Basis Set: AUG-CC-PVDZ
    Blend: AUG-CC-PVDZ
    Number of shells: 130
    Number of basis functions: 302
    Number of Cartesian functions: 322
    Spherical Harmonics?: true
    Max angular momentum: 2

   => Loading Basis Set <=

    Name: (AUG-CC-PVDZ AUX)
    Role: JKFIT
    Keyword: DF_BASIS_SCF
    atoms 1-2, 10-11 entry N          line   212 file /theoryfs2/ds/csargent/miniconda3/envs/cle/share/psi4/basis/aug-cc-pvdz-jkfit.gbs 
    atoms 3-6, 12-15 entry H          line    70 file /theoryfs2/ds/csargent/miniconda3/envs/cle/share/psi4/basis/aug-cc-pvdz-jkfit.gbs 
    atoms 7-9, 16-18 entry C          line   154 file /theoryfs2/ds/csargent/miniconda3/envs/cle/share/psi4/basis/aug-cc-pvdz-jkfit.gbs 

  ==> Integral Setup <==

  ==> DiskDFJK: Density-Fitted J/K Matrices <==

    J tasked:                  Yes
    K tasked:                  Yes
    wK tasked:                  No
    OpenMP threads:              6
    Integrals threads:           6
    Memory [MiB]:             5006
    Algorithm:                Core
    Integral Cache:           LOAD
    Schwarz Cutoff:          1E-12
    Fitting Condition:       1E-10

   => Auxiliary Basis Set <=

  Basis Set: (AUG-CC-PVDZ AUX)
    Blend: AUG-CC-PVDZ-JKFIT
    Number of shells: 376
    Number of basis functions: 1116
    Number of Cartesian functions: 1290
    Spherical Harmonics?: true
    Max angular momentum: 3

  Minimum eigenvalue in the overlap matrix is 3.0333746215E-05.
  Reciprocal condition number of the overlap matrix is 2.4874834855E-06.
    Using symmetric orthogonalization.

  ==> Pre-Iterations <==

  SCF Guess: Superposition of Atomic Densities via on-the-fly atomic UHF (no occupation information).

   -------------------------
    Irrep   Nso     Nmo    
   -------------------------
     A        302     302 
   -------------------------
    Total     302     302
   -------------------------

  ==> Iterations <==

                           Total Energy        Delta E     RMS |[F,P]|

   @DF-RHF iter SAD:  -224.72194801245431   -2.24722e+02   0.00000e+00 
   @DF-RHF iter   1:  -224.63549169909717    8.64563e-02   1.50472e-03 DIIS
   @DF-RHF iter   2:  -224.73984613170538   -1.04354e-01   6.88462e-04 DIIS
   @DF-RHF iter   3:  -224.76075487061638   -2.09087e-02   1.48626e-04 DIIS
   @DF-RHF iter   4:  -224.76213931438940   -1.38444e-03   6.05310e-05 DIIS
   @DF-RHF iter   5:  -224.76231766914782   -1.78355e-04   1.19893e-05 DIIS
   @DF-RHF iter   6:  -224.76233462662222   -1.69575e-05   4.96772e-06 DIIS
   @DF-RHF iter   7:  -224.76233858265979   -3.95604e-06   2.18806e-06 DIIS
   @DF-RHF iter   8:  -224.76233934340246   -7.60743e-07   1.01700e-06 DIIS
   @DF-RHF iter   9:  -224.76233951104447   -1.67642e-07   2.83302e-07 DIIS
   @DF-RHF iter  10:  -224.76233951986521   -8.82073e-09   8.55547e-08 DIIS
   @DF-RHF iter  11:  -224.76233952055443   -6.89226e-10   1.99714e-08 DIIS
   @DF-RHF iter  12:  -224.76233952060079   -4.63558e-11   5.81092e-09 DIIS
   @DF-RHF iter  13:  -224.76233952060491   -4.12115e-12   2.83097e-09 DIIS
   @DF-RHF iter  14:  -224.76233952060571   -7.95808e-13   9.75191e-10 DIIS
   @DF-RHF iter  15:  -224.76233952060613   -4.26326e-13   4.15548e-10 DIIS
   @DF-RHF iter  16:  -224.76233952060582    3.12639e-13   1.25997e-10 DIIS
   @DF-RHF iter  17:  -224.76233952060591   -8.52651e-14   4.47778e-11 DIIS
  Energy and wave function converged.


  ==> Post-Iterations <==

    Orbital Energies [Eh]
    ---------------------

    Doubly Occupied:                                                      

       1A    -15.636223     2A    -15.592313     3A    -11.279894  
       4A    -11.237784     5A    -11.209891     6A     -1.386922  
       7A     -1.121901     8A     -1.066898     9A     -0.872768  
      10A     -0.837061    11A     -0.757292    12A     -0.645746  
      13A     -0.620834    14A     -0.609140    15A     -0.583920  
      16A     -0.461404    17A     -0.370721    18A     -0.346048  

    Virtual:                                                              

      19A      0.022074    20A      0.030764    21A      0.039392  
      22A      0.042368    23A      0.043560    24A      0.049159  
      25A      0.063520    26A      0.065295    27A      0.083369  
      28A      0.090102    29A      0.098311    30A      0.100998  
      31A      0.104029    32A      0.117179    33A      0.117728  
      34A      0.125226    35A      0.126270    36A      0.127702  
      37A      0.132755    38A      0.133069    39A      0.133554  
      40A      0.138403    41A      0.141490    42A      0.156889  
      43A      0.157920    44A      0.164592    45A      0.165368  
      46A      0.171075    47A      0.178408    48A      0.178602  
      49A      0.194878    50A      0.196042    51A      0.200856  
      52A      0.204793    53A      0.206162    54A      0.222290  
      55A      0.224502    56A      0.227609    57A      0.234957  
      58A      0.240236    59A      0.243626    60A      0.244965  
      61A      0.263384    62A      0.270419    63A      0.271127  
      64A      0.279080    65A      0.301010    66A      0.321263  
      67A      0.325148    68A      0.339511    69A      0.352358  
      70A      0.355357    71A      0.365919    72A      0.372288  
      73A      0.374907    74A      0.383130    75A      0.396061  
      76A      0.402741    77A      0.414998    78A      0.426913  
      79A      0.431467    80A      0.432132    81A      0.440615  
      82A      0.441782    83A      0.443385    84A      0.453393  
      85A      0.455408    86A      0.456822    87A      0.459816  
      88A      0.461282    89A      0.478655    90A      0.498543  
      91A      0.508690    92A      0.509143    93A      0.518842  
      94A      0.521917    95A      0.532555    96A      0.537431  
      97A      0.541560    98A      0.558737    99A      0.568250  
     100A      0.571253   101A      0.574432   102A      0.586318  
     103A      0.590538   104A      0.594584   105A      0.602413  
     106A      0.612769   107A      0.620643   108A      0.620953  
     109A      0.632935   110A      0.646110   111A      0.655295  
     112A      0.676161   113A      0.690242   114A      0.698041  
     115A      0.700391   116A      0.707196   117A      0.718874  
     118A      0.721667   119A      0.725115   120A      0.735111  
     121A      0.744766   122A      0.747709   123A      0.758592  
     124A      0.773318   125A      0.781481   126A      0.789073  
     127A      0.797545   128A      0.813864   129A      0.820323  
     130A      0.828504   131A      0.838230   132A      0.848393  
     133A      0.851379   134A      0.854543   135A      0.870439  
     136A      0.880498   137A      0.881395   138A      0.888767  
     139A      0.895100   140A      0.906950   141A      0.915581  
     142A      0.924815   143A      0.942582   144A      0.951502  
     145A      0.978222   146A      0.984850   147A      0.996604  
     148A      1.011149   149A      1.023613   150A      1.029669  
     151A      1.046606   152A      1.051105   153A      1.066503  
     154A      1.070626   155A      1.080430   156A      1.100852  
     157A      1.107636   158A      1.128058   159A      1.134196  
     160A      1.150235   161A      1.158264   162A      1.165742  
     163A      1.175168   164A      1.184455   165A      1.220548  
     166A      1.221194   167A      1.236526   168A      1.267467  
     169A      1.269556   170A      1.293198   171A      1.303342  
     172A      1.311399   173A      1.314628   174A      1.340168  
     175A      1.365807   176A      1.381313   177A      1.401043  
     178A      1.434481   179A      1.444216   180A      1.474691  
     181A      1.492739   182A      1.506517   183A      1.512027  
     184A      1.526129   185A      1.560989   186A      1.590882  
     187A      1.608669   188A      1.637437   189A      1.669472  
     190A      1.676209   191A      1.688381   192A      1.703634  
     193A      1.723950   194A      1.749215   195A      1.764373  
     196A      1.805048   197A      1.875632   198A      1.932390  
     199A      1.943558   200A      1.988067   201A      2.021445  
     202A      2.040604   203A      2.057611   204A      2.088839  
     205A      2.108642   206A      2.134361   207A      2.144687  
     208A      2.167683   209A      2.190005   210A      2.200827  
     211A      2.216181   212A      2.230457   213A      2.233396  
     214A      2.261398   215A      2.275825   216A      2.277261  
     217A      2.288803   218A      2.307640   219A      2.335246  
     220A      2.360716   221A      2.380069   222A      2.389130  
     223A      2.393822   224A      2.394092   225A      2.435246  
     226A      2.443435   227A      2.464967   228A      2.477860  
     229A      2.499444   230A      2.513139   231A      2.531798  
     232A      2.548382   233A      2.570232   234A      2.584716  
     235A      2.630864   236A      2.642961   237A      2.667064  
     238A      2.702561   239A      2.718431   240A      2.733029  
     241A      2.826838   242A      2.827434   243A      2.834751  
     244A      2.869353   245A      2.889577   246A      2.901587  
     247A      2.918598   248A      2.944667   249A      2.999157  
     250A      3.027604   251A      3.055324   252A      3.089363  
     253A      3.092358   254A      3.122730   255A      3.139572  
     256A      3.181498   257A      3.188930   258A      3.222008  
     259A      3.253658   260A      3.288689   261A      3.297865  
     262A      3.355284   263A      3.380235   264A      3.395106  
     265A      3.423029   266A      3.447811   267A      3.486693  
     268A      3.497059   269A      3.520727   270A      3.633042  
     271A      3.666472   272A      3.686563   273A      3.735145  
     274A      3.769597   275A      3.850696   276A      3.889327  
     277A      3.963942   278A      4.035015   279A      4.094280  
     280A      4.209428   281A      4.243620   282A      4.447945  
     283A      4.463235   284A      4.657909   285A      4.707569  
     286A      4.749480   287A      4.810313   288A      4.994398  
     289A      5.076324   290A      5.240989   291A      5.530764  
     292A      5.668477   293A      5.826397   294A      6.106218  
     295A      6.317879   296A      6.707910   297A      6.967393  
     298A     18.110734   299A     18.647398   300A     19.373161  
     301A     25.245046   302A     25.704476  

    Final Occupation by Irrep:
              A 
    DOCC [    18 ]

  @DF-RHF Final Energy:  -224.76233952060591

   => Energetics <=

    Nuclear Repulsion Energy =            166.6240564503272026
    One-Electron Energy =                -633.4992733845762132
    Two-Electron Energy =                 242.1128774136431048
    Total Energy =                       -224.7623395206059058

Computation Completed


Properties will be evaluated at   0.000000,   0.000000,   0.000000 [a0]

Properties computed using the SCF density matrix

  Nuclear Dipole Moment: [e a0]
     X:   162.5886      Y:  -104.5054      Z:    23.1563

  Electronic Dipole Moment: [e a0]
     X:  -162.9913      Y:   105.1370      Z:   -22.5767

  Dipole Moment: [e a0]
     X:    -0.4027      Y:     0.6317      Z:     0.5796     Total:     0.9472

  Dipole Moment: [D]
     X:    -1.0235      Y:     1.6055      Z:     1.4733     Total:     2.4075


*** tstop() called on ds1 at Mon Oct  4 15:13:08 2021
Module time:
	user time   =      15.57 seconds =       0.26 minutes
	system time =       0.32 seconds =       0.01 minutes
	total time  =          3 seconds =       0.05 minutes
Total time:
	user time   =      37.61 seconds =       0.63 minutes
	system time =       0.89 seconds =       0.01 minutes
	total time  =          8 seconds =       0.13 minutes

  //>>>>>>>>>>>>>>>>>>>>>>>>>>>>>>>>>>>//
  //            Monomer B HF           //
  //<<<<<<<<<<<<<<<<<<<<<<<<<<<<<<<<<<<//


*** tstart() called on ds1
*** at Mon Oct  4 15:13:08 2021

   => Loading Basis Set <=

    Name: AUG-CC-PVDZ
    Role: ORBITAL
    Keyword: BASIS
    atoms 1-2, 10-11 entry N          line   218 file /theoryfs2/ds/csargent/miniconda3/envs/cle/share/psi4/basis/aug-cc-pvdz.gbs 
    atoms 3-6, 12-15 entry H          line    40 file /theoryfs2/ds/csargent/miniconda3/envs/cle/share/psi4/basis/aug-cc-pvdz.gbs 
    atoms 7-9, 16-18 entry C          line   182 file /theoryfs2/ds/csargent/miniconda3/envs/cle/share/psi4/basis/aug-cc-pvdz.gbs 


         ---------------------------------------------------------
                                   SCF
               by Justin Turney, Rob Parrish, Andy Simmonett
                          and Daniel G. A. Smith
                              RHF Reference
                        6 Threads,   6675 MiB Core
         ---------------------------------------------------------

  ==> Geometry <==

    Molecular point group: c1
    Full point group: C1

    Geometry (in Bohr), charge = 0, multiplicity = 1:

       Center              X                  Y                   Z               Mass       
    ------------   -----------------  -----------------  -----------------  -----------------
      Gh(N)           6.279812100000    -4.253033720000     0.193138650000    14.003074004430
      Gh(N)           6.068707770000    -2.281256970000     1.805443170000    14.003074004430
      Gh(H)           3.668711560000    -5.646289410000    -1.966840010000     1.007825032230
      Gh(H)           0.690345210000    -2.375456940000    -0.428642360000     1.007825032230
      Gh(H)           3.359174420000     0.176506010000     3.092650170000     1.007825032230
      Gh(H)           7.352667820000    -1.994613110000     2.906807020000     1.007825032230
      Gh(C)           3.779525860000    -1.215084530000     1.768581720000    12.000000000000
      Gh(C)           2.382429980000    -2.555055380000     0.046076810000    12.000000000000
      Gh(C)           4.017714680000    -4.384104900000    -0.887618630000    12.000000000000
         N           -9.197044870000    19.534838750000    25.791368740000    14.003074004430
         N           -9.408149200000    21.506615500000    27.403673260000    14.003074004430
         H          -11.808145410000    18.141583060000    23.631390090000     1.007825032230
         H          -14.786511760000    21.412415520000    25.169587730000     1.007825032230
         H          -12.117682550000    23.964378480000    28.690880260000     1.007825032230
         H           -8.124189140000    21.793259360000    28.505037110000     1.007825032230
         C          -11.697331110000    22.572787940000    27.366811810000    12.000000000000
         C          -13.094426990000    21.232817090000    25.644306910000    12.000000000000
         C          -11.459142280000    19.403767570000    24.710611470000    12.000000000000

  Running in c1 symmetry.

  Rotational constants: A =      0.03142  B =      0.00070  C =      0.00069 [cm^-1]
  Rotational constants: A =    941.97673  B =     21.13064  C =     20.69454 [MHz]
  Nuclear repulsion =  166.624056575028305

  Charge       = 0
  Multiplicity = 1
  Electrons    = 36
  Nalpha       = 18
  Nbeta        = 18

  ==> Algorithm <==

  SCF Algorithm Type is DF.
  DIIS enabled.
  MOM disabled.
  Fractional occupation disabled.
  Guess Type is SAD.
  Energy threshold   = 1.00e-10
  Density threshold  = 1.00e-10
  Integral threshold = 1.00e-12

  ==> Primary Basis <==

  Basis Set: AUG-CC-PVDZ
    Blend: AUG-CC-PVDZ
    Number of shells: 130
    Number of basis functions: 302
    Number of Cartesian functions: 322
    Spherical Harmonics?: true
    Max angular momentum: 2

   => Loading Basis Set <=

    Name: (AUG-CC-PVDZ AUX)
    Role: JKFIT
    Keyword: DF_BASIS_SCF
    atoms 1-2, 10-11 entry N          line   212 file /theoryfs2/ds/csargent/miniconda3/envs/cle/share/psi4/basis/aug-cc-pvdz-jkfit.gbs 
    atoms 3-6, 12-15 entry H          line    70 file /theoryfs2/ds/csargent/miniconda3/envs/cle/share/psi4/basis/aug-cc-pvdz-jkfit.gbs 
    atoms 7-9, 16-18 entry C          line   154 file /theoryfs2/ds/csargent/miniconda3/envs/cle/share/psi4/basis/aug-cc-pvdz-jkfit.gbs 

  ==> Integral Setup <==

  ==> DiskDFJK: Density-Fitted J/K Matrices <==

    J tasked:                  Yes
    K tasked:                  Yes
    wK tasked:                  No
    OpenMP threads:              6
    Integrals threads:           6
    Memory [MiB]:             5006
    Algorithm:                Core
    Integral Cache:           LOAD
    Schwarz Cutoff:          1E-12
    Fitting Condition:       1E-10

   => Auxiliary Basis Set <=

  Basis Set: (AUG-CC-PVDZ AUX)
    Blend: AUG-CC-PVDZ-JKFIT
    Number of shells: 376
    Number of basis functions: 1116
    Number of Cartesian functions: 1290
    Spherical Harmonics?: true
    Max angular momentum: 3

  Minimum eigenvalue in the overlap matrix is 3.0333746215E-05.
  Reciprocal condition number of the overlap matrix is 2.4874834855E-06.
    Using symmetric orthogonalization.

  ==> Pre-Iterations <==

  SCF Guess: Superposition of Atomic Densities via on-the-fly atomic UHF (no occupation information).

   -------------------------
    Irrep   Nso     Nmo    
   -------------------------
     A        302     302 
   -------------------------
    Total     302     302
   -------------------------

  ==> Iterations <==

                           Total Energy        Delta E     RMS |[F,P]|

   @DF-RHF iter SAD:  -224.72194802627044   -2.24722e+02   0.00000e+00 
   @DF-RHF iter   1:  -224.63549170136781    8.64563e-02   1.50472e-03 DIIS
   @DF-RHF iter   2:  -224.73984613464677   -1.04354e-01   6.88462e-04 DIIS
   @DF-RHF iter   3:  -224.76075487366862   -2.09087e-02   1.48626e-04 DIIS
   @DF-RHF iter   4:  -224.76213931744877   -1.38444e-03   6.05310e-05 DIIS
   @DF-RHF iter   5:  -224.76231767220810   -1.78355e-04   1.19893e-05 DIIS
   @DF-RHF iter   6:  -224.76233462968253   -1.69575e-05   4.96772e-06 DIIS
   @DF-RHF iter   7:  -224.76233858572050   -3.95604e-06   2.18806e-06 DIIS
   @DF-RHF iter   8:  -224.76233934646268   -7.60742e-07   1.01700e-06 DIIS
   @DF-RHF iter   9:  -224.76233951410435   -1.67642e-07   2.83302e-07 DIIS
   @DF-RHF iter  10:  -224.76233952292503   -8.82068e-09   8.55547e-08 DIIS
   @DF-RHF iter  11:  -224.76233952361497   -6.89937e-10   1.99714e-08 DIIS
   @DF-RHF iter  12:  -224.76233952366101   -4.60432e-11   5.81092e-09 DIIS
   @DF-RHF iter  13:  -224.76233952366522   -4.20641e-12   2.83097e-09 DIIS
   @DF-RHF iter  14:  -224.76233952366596   -7.38964e-13   9.75191e-10 DIIS
   @DF-RHF iter  15:  -224.76233952366653   -5.68434e-13   4.15548e-10 DIIS
   @DF-RHF iter  16:  -224.76233952366664   -1.13687e-13   1.25998e-10 DIIS
   @DF-RHF iter  17:  -224.76233952366641    2.27374e-13   4.47775e-11 DIIS
  Energy and wave function converged.


  ==> Post-Iterations <==

    Orbital Energies [Eh]
    ---------------------

    Doubly Occupied:                                                      

       1A    -15.636223     2A    -15.592313     3A    -11.279894  
       4A    -11.237784     5A    -11.209891     6A     -1.386922  
       7A     -1.121901     8A     -1.066898     9A     -0.872768  
      10A     -0.837061    11A     -0.757292    12A     -0.645746  
      13A     -0.620834    14A     -0.609140    15A     -0.583920  
      16A     -0.461404    17A     -0.370721    18A     -0.346048  

    Virtual:                                                              

      19A      0.023369    20A      0.030764    21A      0.040756  
      22A      0.042368    23A      0.044815    24A      0.049159  
      25A      0.063520    26A      0.066622    27A      0.084652  
      28A      0.091397    29A      0.099652    30A      0.100998  
      31A      0.104029    32A      0.117179    33A      0.119032  
      34A      0.126270    35A      0.126511    36A      0.128999  
      37A      0.133069    38A      0.134050    39A      0.134828  
      40A      0.138403    41A      0.141490    42A      0.156889  
      43A      0.159207    44A      0.164592    45A      0.166673  
      46A      0.171075    47A      0.178408    48A      0.179892  
      49A      0.196042    50A      0.196178    51A      0.202204  
      52A      0.204793    53A      0.206162    54A      0.223606  
      55A      0.225837    56A      0.228908    57A      0.236244  
      58A      0.240236    59A      0.243626    60A      0.244965  
      61A      0.264698    62A      0.271127    63A      0.271744  
      64A      0.279080    65A      0.301010    66A      0.322574  
      67A      0.325148    68A      0.340817    69A      0.352358  
      70A      0.355357    71A      0.367241    72A      0.373581  
      73A      0.374907    74A      0.384425    75A      0.396061  
      76A      0.402741    77A      0.414998    78A      0.428193  
      79A      0.432132    80A      0.432778    81A      0.441891  
      82A      0.443055    83A      0.443385    84A      0.453393  
      85A      0.456713    86A      0.458122    87A      0.459816  
      88A      0.462584    89A      0.478655    90A      0.498543  
      91A      0.508690    92A      0.510461    93A      0.520146  
      94A      0.521917    95A      0.533863    96A      0.538734  
      97A      0.541560    98A      0.560020    99A      0.569568  
     100A      0.572551   101A      0.574432   102A      0.586318  
     103A      0.590538   104A      0.595890   105A      0.602413  
     106A      0.614047   107A      0.620953   108A      0.621947  
     109A      0.634230   110A      0.646110   111A      0.655295  
     112A      0.676162   113A      0.691568   114A      0.698041  
     115A      0.700391   116A      0.708507   117A      0.720162  
     118A      0.721667   119A      0.725115   120A      0.736405  
     121A      0.746049   122A      0.747709   123A      0.758592  
     124A      0.773318   125A      0.781481   126A      0.790373  
     127A      0.798854   128A      0.815164   129A      0.821612  
     130A      0.828504   131A      0.838230   132A      0.848394  
     133A      0.852662   134A      0.855851   135A      0.871733  
     136A      0.881395   137A      0.881787   138A      0.888767  
     139A      0.896398   140A      0.906950   141A      0.916884  
     142A      0.924815   143A      0.942582   144A      0.952803  
     145A      0.978222   146A      0.984850   147A      0.997908  
     148A      1.011149   149A      1.024909   150A      1.030974  
     151A      1.046606   152A      1.052413   153A      1.066503  
     154A      1.071917   155A      1.081717   156A      1.100852  
     157A      1.108936   158A      1.128058   159A      1.134196  
     160A      1.150235   161A      1.159562   162A      1.167044  
     163A      1.175168   164A      1.185750   165A      1.220548  
     166A      1.222503   167A      1.237830   168A      1.268769  
     169A      1.269556   170A      1.294506   171A      1.303342  
     172A      1.311399   173A      1.315930   174A      1.341478  
     175A      1.365807   176A      1.382617   177A      1.401043  
     178A      1.435790   179A      1.445522   180A      1.474691  
     181A      1.494047   182A      1.507826   183A      1.512027  
     184A      1.526129   185A      1.560989   186A      1.590882  
     187A      1.608669   188A      1.637437   189A      1.669472  
     190A      1.677523   191A      1.689698   192A      1.703634  
     193A      1.723950   194A      1.749215   195A      1.764373  
     196A      1.805048   197A      1.875632   198A      1.932390  
     199A      1.943558   200A      1.988067   201A      2.021445  
     202A      2.041887   203A      2.057611   204A      2.088839  
     205A      2.109942   206A      2.135654   207A      2.144687  
     208A      2.168948   209A      2.190005   210A      2.200827  
     211A      2.217475   212A      2.230457   213A      2.234682  
     214A      2.262690   215A      2.275825   216A      2.278550  
     217A      2.290093   218A      2.307640   219A      2.336553  
     220A      2.360716   221A      2.381362   222A      2.389130  
     223A      2.393822   224A      2.395383   225A      2.435246  
     226A      2.444725   227A      2.464967   228A      2.479153  
     229A      2.500725   230A      2.514444   231A      2.531798  
     232A      2.549664   233A      2.570232   234A      2.584716  
     235A      2.632160   236A      2.642961   237A      2.668364  
     238A      2.703864   239A      2.719730   240A      2.733029  
     241A      2.826838   242A      2.828732   243A      2.834751  
     244A      2.870658   245A      2.890875   246A      2.901587  
     247A      2.918598   248A      2.945963   249A      2.999157  
     250A      3.028905   251A      3.055324   252A      3.090670  
     253A      3.092358   254A      3.122730   255A      3.140858  
     256A      3.182793   257A      3.188930   258A      3.222008  
     259A      3.254961   260A      3.289994   261A      3.297865  
     262A      3.356591   263A      3.380235   264A      3.396410  
     265A      3.424336   266A      3.449106   267A      3.487995  
     268A      3.498343   269A      3.520727   270A      3.634349  
     271A      3.667772   272A      3.686563   273A      3.736439  
     274A      3.770907   275A      3.852003   276A      3.889327  
     277A      3.965234   278A      4.036329   279A      4.095587  
     280A      4.209428   281A      4.244921   282A      4.449250  
     283A      4.463235   284A      4.659219   285A      4.708874  
     286A      4.750774   287A      4.811616   288A      4.995699  
     289A      5.077631   290A      5.242295   291A      5.532069  
     292A      5.669788   293A      5.827708   294A      6.107523  
     295A      6.319155   296A      6.709200   297A      6.968698  
     298A     18.112017   299A     18.648695   300A     19.374448  
     301A     25.246360   302A     25.705787  

    Final Occupation by Irrep:
              A 
    DOCC [    18 ]

  @DF-RHF Final Energy:  -224.76233952366641

   => Energetics <=

    Nuclear Repulsion Energy =            166.6240565750283054
    One-Electron Energy =                -633.4992736439461396
    Two-Electron Energy =                 242.1128775452514219
    Total Energy =                       -224.7623395236664123

Computation Completed


Properties will be evaluated at   0.000000,   0.000000,   0.000000 [a0]

Properties computed using the SCF density matrix

  Nuclear Dipole Moment: [e a0]
     X:  -394.5783      Y:   751.8581      Z:   944.6926

  Electronic Dipole Moment: [e a0]
     X:   394.1756      Y:  -751.2264      Z:  -944.1129

  Dipole Moment: [e a0]
     X:    -0.4027      Y:     0.6317      Z:     0.5796     Total:     0.9472

  Dipole Moment: [D]
     X:    -1.0235      Y:     1.6055      Z:     1.4733     Total:     2.4075


*** tstop() called on ds1 at Mon Oct  4 15:13:11 2021
Module time:
	user time   =      15.65 seconds =       0.26 minutes
	system time =       0.35 seconds =       0.01 minutes
	total time  =          3 seconds =       0.05 minutes
Total time:
	user time   =      53.46 seconds =       0.89 minutes
	system time =       1.25 seconds =       0.02 minutes
	total time  =         11 seconds =       0.18 minutes
  Constructing Basis Sets for SAPT...

   => Loading Basis Set <=

    Name: (AUG-CC-PVDZ AUX)
    Role: RIFIT
    Keyword: DF_BASIS_SAPT
    atoms 1-2, 10-11 entry N          line   158 file /theoryfs2/ds/csargent/miniconda3/envs/cle/share/psi4/basis/aug-cc-pvdz-ri.gbs 
    atoms 3-6, 12-15 entry H          line    30 file /theoryfs2/ds/csargent/miniconda3/envs/cle/share/psi4/basis/aug-cc-pvdz-ri.gbs 
    atoms 7-9, 16-18 entry C          line   112 file /theoryfs2/ds/csargent/miniconda3/envs/cle/share/psi4/basis/aug-cc-pvdz-ri.gbs 


  //>>>>>>>>>>>>>>>>>>>>>>>>>>>>>>>>>>>//
  //               SAPT0               //
  //<<<<<<<<<<<<<<<<<<<<<<<<<<<<<<<<<<<//


*** tstart() called on ds1
*** at Mon Oct  4 15:13:12 2021

        SAPT0  
    Ed Hohenstein
     6 June 2009

      Orbital Information
  --------------------------
    NSO        =       302
    NMO        =       302
    NRI        =       904
    NOCC A     =        18
    NOCC B     =        18
    FOCC A     =         5
    FOCC B     =         5
    NVIR A     =       284
    NVIR B     =       284

    Elst10,r            =    -0.000033576981 [Eh]
    Exch10              =     0.000000000000 [Eh]
    Exch10 (S^2)        =     0.000000000000 [Eh]

    Iter     Energy [mEh]          dE [mEh]         Residual      Time [s]
       1      -0.00002939       0.000029394       0.058815101             0
       2      -0.00002723      -0.000002161       0.014613979             0
       3      -0.00003037       0.000003135       0.005867175             0
       4      -0.00003067       0.000000304       0.002276863             0
       5      -0.00003054      -0.000000127       0.001234165             0
       6      -0.00003052      -0.000000028       0.000432275             1
       7      -0.00003052       0.000000009       0.000159709             1
       8      -0.00003053       0.000000006       0.000051212             1
       9      -0.00003053      -0.000000000       0.000013756             1
      10      -0.00003053      -0.000000001       0.000003394             1
      11      -0.00003053       0.000000000       0.000001235             1
      12      -0.00003053       0.000000000       0.000000355             2

    CHF Iterations converged


    Iter     Energy [mEh]          dE [mEh]         Residual      Time [s]
       1      -0.00002856       0.000028559       0.059443521             0
       2      -0.00002621      -0.000002348       0.014310058             0
       3      -0.00002903       0.000002816       0.005638451             0
       4      -0.00002935       0.000000321       0.001822730             0
       5      -0.00002926      -0.000000084       0.001101947             0
       6      -0.00002923      -0.000000033       0.000427932             1
       7      -0.00002924       0.000000008       0.000154078             1
       8      -0.00002924       0.000000006       0.000049673             1
       9      -0.00002924       0.000000000       0.000012477             1
      10      -0.00002924      -0.000000001       0.000003495             1
      11      -0.00002924      -0.000000000       0.000000910             1

    CHF Iterations converged

    Ind20,r (A<-B)      =    -0.000000030530 [Eh]
    Ind20,r (B<-A)      =    -0.000000029244 [Eh]
    Ind20,r             =    -0.000000059774 [Eh]
    Exch-Ind20,r (A<-B) =     0.000000000000 [Eh]
    Exch-Ind20,r (B<-A) =     0.000000000000 [Eh]
    Exch-Ind20,r        =     0.000000000000 [Eh]
    Disp20              =    -0.000000420442 [Eh]
    Disp20 (SS)         =    -0.000000210221 [Eh]
    Disp20 (OS)         =    -0.000000210221 [Eh]
    Exch-Disp20         =     0.000000000000 [Eh]
    Exch-Disp20 (SS)    =     0.000000000000 [Eh]
    Exch-Disp20 (OS)    =     0.000000000000 [Eh]

    SAPT Results 
  --------------------------------------------------------------------------------------------------------
    Electrostatics                 -0.03357698 [mEh]      -0.02106987 [kcal/mol]      -0.08815635 [kJ/mol]
      Elst10,r                     -0.03357698 [mEh]      -0.02106987 [kcal/mol]      -0.08815635 [kJ/mol]

    Exchange                        0.00000000 [mEh]       0.00000000 [kcal/mol]       0.00000000 [kJ/mol]
      Exch10                        0.00000000 [mEh]       0.00000000 [kcal/mol]       0.00000000 [kJ/mol]
      Exch10(S^2)                   0.00000000 [mEh]       0.00000000 [kcal/mol]       0.00000000 [kJ/mol]

    Induction                       0.00000970 [mEh]       0.00000609 [kcal/mol]       0.00002548 [kJ/mol]
      Ind20,r                      -0.00005977 [mEh]      -0.00003751 [kcal/mol]      -0.00015694 [kJ/mol]
      Exch-Ind20,r                  0.00000000 [mEh]       0.00000000 [kcal/mol]       0.00000000 [kJ/mol]
      delta HF,r (2)                0.00006948 [mEh]       0.00004360 [kcal/mol]       0.00018242 [kJ/mol]

    Dispersion                     -0.00042044 [mEh]      -0.00026383 [kcal/mol]      -0.00110387 [kJ/mol]
      Disp20                       -0.00042044 [mEh]      -0.00026383 [kcal/mol]      -0.00110387 [kJ/mol]
      Exch-Disp20                   0.00000000 [mEh]       0.00000000 [kcal/mol]       0.00000000 [kJ/mol]
      Disp20 (SS)                  -0.00021022 [mEh]      -0.00013192 [kcal/mol]      -0.00055194 [kJ/mol]
      Disp20 (OS)                  -0.00021022 [mEh]      -0.00013192 [kcal/mol]      -0.00055194 [kJ/mol]
      Exch-Disp20 (SS)              0.00000000 [mEh]       0.00000000 [kcal/mol]       0.00000000 [kJ/mol]
      Exch-Disp20 (OS)              0.00000000 [mEh]       0.00000000 [kcal/mol]       0.00000000 [kJ/mol]

  Total HF                         -0.03356728 [mEh]      -0.02106378 [kcal/mol]      -0.08813087 [kJ/mol]
  Total SAPT0                      -0.03398772 [mEh]      -0.02132761 [kcal/mol]      -0.08923474 [kJ/mol]

  Special recipe for scaled SAPT0 (see Manual):
    Electrostatics sSAPT0          -0.03357698 [mEh]      -0.02106987 [kcal/mol]      -0.08815635 [kJ/mol]
    Exchange sSAPT0                 0.00000000 [mEh]       0.00000000 [kcal/mol]       0.00000000 [kJ/mol]
    Induction sSAPT0                0.00000970 [mEh]       0.00000609 [kcal/mol]       0.00002548 [kJ/mol]
    Dispersion sSAPT0              -0.00042044 [mEh]      -0.00026383 [kcal/mol]      -0.00110387 [kJ/mol]
  Total sSAPT0                     -0.03398772 [mEh]      -0.02132761 [kcal/mol]      -0.08923474 [kJ/mol]
  --------------------------------------------------------------------------------------------------------

*** tstop() called on ds1 at Mon Oct  4 15:13:22 2021
Module time:
	user time   =      49.30 seconds =       0.82 minutes
	system time =       4.29 seconds =       0.07 minutes
	total time  =         10 seconds =       0.17 minutes
Total time:
	user time   =     103.69 seconds =       1.73 minutes
	system time =       5.56 seconds =       0.09 minutes
	total time  =         22 seconds =       0.37 minutes


Warning! sapt0 does not have an associated derived wavefunction.The returned wavefunction is the dimer SCF wavefunction.


    Psi4 stopped on: Monday, 04 October 2021 03:13PM
    Psi4 wall time for execution: 0:00:22.13

*** Psi4 exiting successfully. Buy a developer a beer!
