
    -----------------------------------------------------------------------
          Psi4: An Open-Source Ab Initio Electronic Structure Package
                               Psi4 1.4rc3 

                         Git: Rev {HEAD} 080dba6 


    D. G. A. Smith, L. A. Burns, A. C. Simmonett, R. M. Parrish,
    M. C. Schieber, R. Galvelis, P. Kraus, H. Kruse, R. Di Remigio,
    A. Alenaizan, A. M. James, S. Lehtola, J. P. Misiewicz, M. Scheurer,
    R. A. Shaw, J. B. Schriber, Y. Xie, Z. L. Glick, D. A. Sirianni,
    J. S. O'Brien, J. M. Waldrop, A. Kumar, E. G. Hohenstein,
    B. P. Pritchard, B. R. Brooks, H. F. Schaefer III, A. Yu. Sokolov,
    K. Patkowski, A. E. DePrince III, U. Bozkaya, R. A. King,
    F. A. Evangelista, J. M. Turney, T. D. Crawford, C. D. Sherrill,
    J. Chem. Phys. 152(18) 184108 (2020). https://doi.org/10.1063/5.0006002

                            Additional Code Authors
    E. T. Seidl, C. L. Janssen, E. F. Valeev, M. L. Leininger,
    J. F. Gonthier, R. M. Richard, H. R. McAlexander, M. Saitow, X. Wang,
    P. Verma, and M. H. Lechner

             Previous Authors, Complete List of Code Contributors,
                       and Citations for Specific Modules
    https://github.com/psi4/psi4/blob/master/codemeta.json
    https://github.com/psi4/psi4/graphs/contributors
    http://psicode.org/psi4manual/master/introduction.html#citing-psifour

    -----------------------------------------------------------------------


    Psi4 started on: Monday, 04 October 2021 01:34PM

    Process ID: 8187
    Host:       ds1
    PSIDATADIR: /theoryfs2/ds/csargent/miniconda3/envs/cle/share/psi4
    Memory:     500.0 MiB
    Threads:    6
    
  ==> Input File <==

--------------------------------------------------------------------------
# PSI4 file produced by CrystaLattE

# Generated from:               pyrazole.xyz
# Psithon input for N-mer:      2mer-0+109
# Number of atoms per monomer:  [9, 9]
# Number of replicas:           1
# COM priority:                 8.137154243871e-05
# Minimum COM separations:      12.212 
# Separation priority:          2.390681140076e-04
# Minimum monomer separations:  8.526 
# Cutoff priority:              1.483755040273e-05
# Nuclear repulsion energy:     389.68133829826326

memory 7 GB

molecule Dimer_0_109 {
  N            6.27981210      -4.25303372       0.19313865 
  N            6.06870777      -2.28125697       1.80544317 
  H            3.66871156      -5.64628941      -1.96684001 
  H            0.69034521      -2.37545694      -0.42864236 
  H            3.35917442       0.17650601       3.09265017 
  H            7.35266782      -1.99461311       2.90680702 
  C            3.77952586      -1.21508453       1.76858172 
  C            2.38242998      -2.55505538       0.04607681 
  C            4.01771468      -4.38410490      -0.88761863 
--
  N           18.27499532       9.60054745      14.38697326 
  N           18.39385758       7.56264041      12.84979954 
  H           20.94815806      12.00145742      15.10500361 
  H           23.84279462       9.55891867      12.34986611 
  H           20.90637054       5.84586966      10.44522980 
  H           16.93144937       6.75266336      12.46403422 
  C           20.67669399       7.23246474      11.82075069 
  C           22.15968642       9.16213696      12.71067316 
  C           20.59838109      10.54730477      14.30237111 
units = au
no_com
no_reorient
}

set {
  e_convergence 10
  d_convergence 10
  scf_type df
  mp2_type df
  cc_type df
  freeze_core true
}

energy('sapt0/aug-cc-pvdz')

--------------------------------------------------------------------------

  Memory set to   6.519 GiB by Python driver.

Scratch directory: /scratch/csargent/psi4.7158.66302/

Scratch directory: /scratch/csargent/psi4.7158.66302/

  //>>>>>>>>>>>>>>>>>>>>>>>>>>>>>>>>>>>//
  //              Dimer HF             //
  //<<<<<<<<<<<<<<<<<<<<<<<<<<<<<<<<<<<//


*** tstart() called on ds1
*** at Mon Oct  4 13:34:48 2021

   => Loading Basis Set <=

    Name: AUG-CC-PVDZ
    Role: ORBITAL
    Keyword: BASIS
    atoms 1-2, 10-11 entry N          line   218 file /theoryfs2/ds/csargent/miniconda3/envs/cle/share/psi4/basis/aug-cc-pvdz.gbs 
    atoms 3-6, 12-15 entry H          line    40 file /theoryfs2/ds/csargent/miniconda3/envs/cle/share/psi4/basis/aug-cc-pvdz.gbs 
    atoms 7-9, 16-18 entry C          line   182 file /theoryfs2/ds/csargent/miniconda3/envs/cle/share/psi4/basis/aug-cc-pvdz.gbs 


         ---------------------------------------------------------
                                   SCF
               by Justin Turney, Rob Parrish, Andy Simmonett
                          and Daniel G. A. Smith
                              RHF Reference
                        6 Threads,   6675 MiB Core
         ---------------------------------------------------------

  ==> Geometry <==

    Molecular point group: c1
    Full point group: C1

    Geometry (in Bohr), charge = 0, multiplicity = 1:

       Center              X                  Y                   Z               Mass       
    ------------   -----------------  -----------------  -----------------  -----------------
         N            6.279812100000    -4.253033720000     0.193138650000    14.003074004430
         N            6.068707770000    -2.281256970000     1.805443170000    14.003074004430
         H            3.668711560000    -5.646289410000    -1.966840010000     1.007825032230
         H            0.690345210000    -2.375456940000    -0.428642360000     1.007825032230
         H            3.359174420000     0.176506010000     3.092650170000     1.007825032230
         H            7.352667820000    -1.994613110000     2.906807020000     1.007825032230
         C            3.779525860000    -1.215084530000     1.768581720000    12.000000000000
         C            2.382429980000    -2.555055380000     0.046076810000    12.000000000000
         C            4.017714680000    -4.384104900000    -0.887618630000    12.000000000000
         N           18.274995320000     9.600547450000    14.386973260000    14.003074004430
         N           18.393857580000     7.562640410000    12.849799540000    14.003074004430
         H           20.948158060000    12.001457420000    15.105003610000     1.007825032230
         H           23.842794620000     9.558918670000    12.349866110000     1.007825032230
         H           20.906370540000     5.845869660000    10.445229800000     1.007825032230
         H           16.931449370000     6.752663360000    12.464034220000     1.007825032230
         C           20.676693990000     7.232464740000    11.820750690000    12.000000000000
         C           22.159686420000     9.162136960000    12.710673160000    12.000000000000
         C           20.598381090000    10.547304770000    14.302371110000    12.000000000000

  Running in c1 symmetry.

  Rotational constants: A =      0.03270  B =      0.00133  C =      0.00128 [cm^-1]
  Rotational constants: A =    980.19465  B =     39.91766  C =     38.48322 [MHz]
  Nuclear repulsion =  389.681338180046112

  Charge       = 0
  Multiplicity = 1
  Electrons    = 72
  Nalpha       = 36
  Nbeta        = 36

  ==> Algorithm <==

  SCF Algorithm Type is DF.
  DIIS enabled.
  MOM disabled.
  Fractional occupation disabled.
  Guess Type is SAD.
  Energy threshold   = 1.00e-10
  Density threshold  = 1.00e-10
  Integral threshold = 1.00e-12

  ==> Primary Basis <==

  Basis Set: AUG-CC-PVDZ
    Blend: AUG-CC-PVDZ
    Number of shells: 130
    Number of basis functions: 302
    Number of Cartesian functions: 322
    Spherical Harmonics?: true
    Max angular momentum: 2

   => Loading Basis Set <=

    Name: (AUG-CC-PVDZ AUX)
    Role: JKFIT
    Keyword: DF_BASIS_SCF
    atoms 1-2, 10-11 entry N          line   212 file /theoryfs2/ds/csargent/miniconda3/envs/cle/share/psi4/basis/aug-cc-pvdz-jkfit.gbs 
    atoms 3-6, 12-15 entry H          line    70 file /theoryfs2/ds/csargent/miniconda3/envs/cle/share/psi4/basis/aug-cc-pvdz-jkfit.gbs 
    atoms 7-9, 16-18 entry C          line   154 file /theoryfs2/ds/csargent/miniconda3/envs/cle/share/psi4/basis/aug-cc-pvdz-jkfit.gbs 

  ==> Integral Setup <==

  ==> DiskDFJK: Density-Fitted J/K Matrices <==

    J tasked:                  Yes
    K tasked:                  Yes
    wK tasked:                  No
    OpenMP threads:              6
    Integrals threads:           6
    Memory [MiB]:             5006
    Algorithm:                Core
    Integral Cache:           SAVE
    Schwarz Cutoff:          1E-12
    Fitting Condition:       1E-10

   => Auxiliary Basis Set <=

  Basis Set: (AUG-CC-PVDZ AUX)
    Blend: AUG-CC-PVDZ-JKFIT
    Number of shells: 376
    Number of basis functions: 1116
    Number of Cartesian functions: 1290
    Spherical Harmonics?: true
    Max angular momentum: 3

  Minimum eigenvalue in the overlap matrix is 3.0301554832E-05.
  Reciprocal condition number of the overlap matrix is 2.4845120895E-06.
    Using symmetric orthogonalization.

  ==> Pre-Iterations <==

  SCF Guess: Superposition of Atomic Densities via on-the-fly atomic UHF (no occupation information).

   -------------------------
    Irrep   Nso     Nmo    
   -------------------------
     A        302     302 
   -------------------------
    Total     302     302
   -------------------------

  ==> Iterations <==

                           Total Energy        Delta E     RMS |[F,P]|

   @DF-RHF iter SAD:  -449.44445668745294   -4.49444e+02   0.00000e+00 
   @DF-RHF iter   1:  -449.27059754428262    1.73859e-01   2.12985e-03 DIIS
   @DF-RHF iter   2:  -449.47938092905855   -2.08783e-01   9.77194e-04 DIIS
   @DF-RHF iter   3:  -449.52149826199548   -4.21173e-02   2.11556e-04 DIIS
   @DF-RHF iter   4:  -449.52428738217020   -2.78912e-03   8.67129e-05 DIIS
   @DF-RHF iter   5:  -449.52465276167817   -3.65380e-04   1.69471e-05 DIIS
   @DF-RHF iter   6:  -449.52468681355094   -3.40519e-05   7.04796e-06 DIIS
   @DF-RHF iter   7:  -449.52469474618107   -7.93263e-06   3.12072e-06 DIIS
   @DF-RHF iter   8:  -449.52469628812833   -1.54195e-06   1.44038e-06 DIIS
   @DF-RHF iter   9:  -449.52469662620501   -3.38077e-07   4.02702e-07 DIIS
   @DF-RHF iter  10:  -449.52469664402633   -1.78213e-08   1.20857e-07 DIIS
   @DF-RHF iter  11:  -449.52469664540126   -1.37493e-09   2.80690e-08 DIIS
   @DF-RHF iter  12:  -449.52469664549233   -9.10632e-11   8.12840e-09 DIIS
   @DF-RHF iter  13:  -449.52469664550040   -8.07177e-12   3.91391e-09 DIIS
   @DF-RHF iter  14:  -449.52469664550256   -2.16005e-12   1.32495e-09 DIIS
   @DF-RHF iter  15:  -449.52469664550216    3.97904e-13   5.73444e-10 DIIS
   @DF-RHF iter  16:  -449.52469664550324   -1.08002e-12   1.79582e-10 DIIS
   @DF-RHF iter  17:  -449.52469664550256    6.82121e-13   6.50232e-11 DIIS
  Energy and wave function converged.


  ==> Post-Iterations <==

    Orbital Energies [Eh]
    ---------------------

    Doubly Occupied:                                                      

       1A    -15.637746     2A    -15.637579     3A    -15.593746  
       4A    -15.593553     5A    -11.281307     6A    -11.281144  
       7A    -11.239188     8A    -11.238996     9A    -11.211230  
      10A    -11.211054    11A     -1.388415    12A     -1.388320  
      13A     -1.123386    14A     -1.123205    15A     -1.068301  
      16A     -1.068158    17A     -0.874234    18A     -0.874054  
      19A     -0.838451    20A     -0.838261    21A     -0.758690  
      22A     -0.758497    23A     -0.647190    24A     -0.647018  
      25A     -0.622210    26A     -0.622036    27A     -0.610630  
      28A     -0.610490    29A     -0.585300    30A     -0.585116  
      31A     -0.462868    32A     -0.462705    33A     -0.372163  
      34A     -0.371986    35A     -0.347447    36A     -0.347282  

    Virtual:                                                              

      37A      0.021327    38A      0.033542    39A      0.039788  
      40A      0.042801    41A      0.047958    42A      0.051423  
      43A      0.061721    44A      0.063862    45A      0.099115  
      46A      0.100126    47A      0.101873    48A      0.103341  
      49A      0.116034    50A      0.116173    51A      0.122805  
      52A      0.126458    53A      0.130022    54A      0.134937  
      55A      0.137514    56A      0.137601    57A      0.140769  
      58A      0.141829    59A      0.153631    60A      0.159185  
      61A      0.163406    62A      0.164750    63A      0.169647  
      64A      0.169779    65A      0.175355    66A      0.179462  
      67A      0.193928    68A      0.199219    69A      0.203186  
      70A      0.203550    71A      0.203971    72A      0.213315  
      73A      0.239000    74A      0.239141    75A      0.242141  
      76A      0.242432    77A      0.243380    78A      0.243934  
      79A      0.269526    80A      0.270062    81A      0.275709  
      82A      0.279922    83A      0.299676    84A      0.299850  
      85A      0.323322    86A      0.324636    87A      0.350003  
      88A      0.351740    89A      0.355072    90A      0.356860  
      91A      0.373544    92A      0.374150    93A      0.394360  
      94A      0.396909    95A      0.401591    96A      0.401819  
      97A      0.414381    98A      0.414695    99A      0.429464  
     100A      0.435328   101A      0.442395   102A      0.442763  
     103A      0.451930   104A      0.452308   105A      0.458530  
     106A      0.458900   107A      0.477012   108A      0.477542  
     109A      0.497061   110A      0.497918   111A      0.507310  
     112A      0.507598   113A      0.520145   114A      0.521490  
     115A      0.539598   116A      0.541661   117A      0.570088  
     118A      0.579640   119A      0.585475   120A      0.585785  
     121A      0.589110   122A      0.590450   123A      0.600224  
     124A      0.602466   125A      0.619524   126A      0.620082  
     127A      0.644284   128A      0.645740   129A      0.654068  
     130A      0.654645   131A      0.674833   132A      0.674968  
     133A      0.696725   134A      0.696933   135A      0.698944  
     136A      0.699600   137A      0.719919   138A      0.720646  
     139A      0.723194   140A      0.725851   141A      0.746392  
     142A      0.746533   143A      0.757374   144A      0.757541  
     145A      0.772012   146A      0.772150   147A      0.780293  
     148A      0.781499   149A      0.826918   150A      0.827611  
     151A      0.836644   152A      0.837591   153A      0.847058  
     154A      0.847316   155A      0.879922   156A      0.880469  
     157A      0.887617   158A      0.887849   159A      0.905475  
     160A      0.906079   161A      0.922359   162A      0.927579  
     163A      0.941189   164A      0.941425   165A      0.976884  
     166A      0.977044   167A      0.983528   168A      0.983684  
     169A      1.009696   170A      1.009902   171A      1.044790  
     172A      1.045730   173A      1.065109   174A      1.065813  
     175A      1.099295   176A      1.099573   177A      1.126638  
     178A      1.126904   179A      1.133084   180A      1.133280  
     181A      1.148887   182A      1.149342   183A      1.173658  
     184A      1.174406   185A      1.219107   186A      1.219283  
     187A      1.268159   188A      1.268430   189A      1.301829  
     190A      1.302305   191A      1.309967   192A      1.310166  
     193A      1.362862   194A      1.370796   195A      1.399624  
     196A      1.400000   197A      1.472635   198A      1.475481  
     199A      1.510546   200A      1.510757   201A      1.524840  
     202A      1.525035   203A      1.559314   204A      1.560795  
     205A      1.589768   206A      1.590066   207A      1.607331  
     208A      1.607610   209A      1.636072   210A      1.636549  
     211A      1.667960   212A      1.669192   213A      1.701866  
     214A      1.703236   215A      1.722604   216A      1.722932  
     217A      1.747930   218A      1.748085   219A      1.763000  
     220A      1.763208   221A      1.803688   222A      1.803828  
     223A      1.874240   224A      1.874397   225A      1.930804  
     226A      1.932042   227A      1.942240   228A      1.942407  
     229A      1.986726   230A      1.986962   231A      2.020124  
     232A      2.020335   233A      2.056020   234A      2.057021  
     235A      2.087369   236A      2.087551   237A      2.143266  
     238A      2.143678   239A      2.188771   240A      2.188898  
     241A      2.199469   242A      2.199673   243A      2.228981  
     244A      2.229153   245A      2.274482   246A      2.274782  
     247A      2.306202   248A      2.306497   249A      2.359359  
     250A      2.359449   251A      2.387587   252A      2.388091  
     253A      2.392281   254A      2.393439   255A      2.433735  
     256A      2.433951   257A      2.463100   258A      2.464228  
     259A      2.530347   260A      2.530934   261A      2.568809  
     262A      2.568956   263A      2.583208   264A      2.583547  
     265A      2.641562   266A      2.642097   267A      2.731238  
     268A      2.732124   269A      2.825337   270A      2.825786  
     271A      2.833171   272A      2.833895   273A      2.900091  
     274A      2.900299   275A      2.917063   276A      2.917221  
     277A      2.997340   278A      2.999209   279A      3.053797  
     280A      3.054693   281A      3.090929   282A      3.091267  
     283A      3.121430   284A      3.121660   285A      3.187462  
     286A      3.188046   287A      3.220658   288A      3.220875  
     289A      3.296478   290A      3.296703   291A      3.378025  
     292A      3.381974   293A      3.519282   294A      3.519488  
     295A      3.684981   296A      3.685252   297A      3.887593  
     298A      3.888662   299A      4.207257   300A      4.210254  
     301A      4.461711   302A      4.462030  

    Final Occupation by Irrep:
              A 
    DOCC [    36 ]

  @DF-RHF Final Energy:  -449.52469664550256

   => Energetics <=

    Nuclear Repulsion Energy =            389.6813381800461116
    One-Electron Energy =               -1379.7681552618439582
    Two-Electron Energy =                 540.5621204362952312
    Total Energy =                       -449.5246966455025586

Computation Completed


Properties will be evaluated at   0.000000,   0.000000,   0.000000 [a0]

Properties computed using the SCF density matrix

  Nuclear Dipole Moment: [e a0]
     X:   882.5079      Y:   211.4473      Z:   497.1806

  Electronic Dipole Moment: [e a0]
     X:  -882.6197      Y:  -211.3787      Z:  -497.3064

  Dipole Moment: [e a0]
     X:    -0.1118      Y:     0.0686      Z:    -0.1258     Total:     0.1818

  Dipole Moment: [D]
     X:    -0.2842      Y:     0.1744      Z:    -0.3198     Total:     0.4620


*** tstop() called on ds1 at Mon Oct  4 13:34:53 2021
Module time:
	user time   =      25.78 seconds =       0.43 minutes
	system time =       0.59 seconds =       0.01 minutes
	total time  =          5 seconds =       0.08 minutes
Total time:
	user time   =      25.78 seconds =       0.43 minutes
	system time =       0.59 seconds =       0.01 minutes
	total time  =          5 seconds =       0.08 minutes

  //>>>>>>>>>>>>>>>>>>>>>>>>>>>>>>>>>>>//
  //            Monomer A HF           //
  //<<<<<<<<<<<<<<<<<<<<<<<<<<<<<<<<<<<//


*** tstart() called on ds1
*** at Mon Oct  4 13:34:54 2021

   => Loading Basis Set <=

    Name: AUG-CC-PVDZ
    Role: ORBITAL
    Keyword: BASIS
    atoms 1-2, 10-11 entry N          line   218 file /theoryfs2/ds/csargent/miniconda3/envs/cle/share/psi4/basis/aug-cc-pvdz.gbs 
    atoms 3-6, 12-15 entry H          line    40 file /theoryfs2/ds/csargent/miniconda3/envs/cle/share/psi4/basis/aug-cc-pvdz.gbs 
    atoms 7-9, 16-18 entry C          line   182 file /theoryfs2/ds/csargent/miniconda3/envs/cle/share/psi4/basis/aug-cc-pvdz.gbs 


         ---------------------------------------------------------
                                   SCF
               by Justin Turney, Rob Parrish, Andy Simmonett
                          and Daniel G. A. Smith
                              RHF Reference
                        6 Threads,   6675 MiB Core
         ---------------------------------------------------------

  ==> Geometry <==

    Molecular point group: c1
    Full point group: C1

    Geometry (in Bohr), charge = 0, multiplicity = 1:

       Center              X                  Y                   Z               Mass       
    ------------   -----------------  -----------------  -----------------  -----------------
         N            6.279812100000    -4.253033720000     0.193138650000    14.003074004430
         N            6.068707770000    -2.281256970000     1.805443170000    14.003074004430
         H            3.668711560000    -5.646289410000    -1.966840010000     1.007825032230
         H            0.690345210000    -2.375456940000    -0.428642360000     1.007825032230
         H            3.359174420000     0.176506010000     3.092650170000     1.007825032230
         H            7.352667820000    -1.994613110000     2.906807020000     1.007825032230
         C            3.779525860000    -1.215084530000     1.768581720000    12.000000000000
         C            2.382429980000    -2.555055380000     0.046076810000    12.000000000000
         C            4.017714680000    -4.384104900000    -0.887618630000    12.000000000000
      Gh(N)          18.274995320000     9.600547450000    14.386973260000    14.003074004430
      Gh(N)          18.393857580000     7.562640410000    12.849799540000    14.003074004430
      Gh(H)          20.948158060000    12.001457420000    15.105003610000     1.007825032230
      Gh(H)          23.842794620000     9.558918670000    12.349866110000     1.007825032230
      Gh(H)          20.906370540000     5.845869660000    10.445229800000     1.007825032230
      Gh(H)          16.931449370000     6.752663360000    12.464034220000     1.007825032230
      Gh(C)          20.676693990000     7.232464740000    11.820750690000    12.000000000000
      Gh(C)          22.159686420000     9.162136960000    12.710673160000    12.000000000000
      Gh(C)          20.598381090000    10.547304770000    14.302371110000    12.000000000000

  Running in c1 symmetry.

  Rotational constants: A =      0.03270  B =      0.00133  C =      0.00128 [cm^-1]
  Rotational constants: A =    980.19465  B =     39.91766  C =     38.48322 [MHz]
  Nuclear repulsion =  166.624056450327203

  Charge       = 0
  Multiplicity = 1
  Electrons    = 36
  Nalpha       = 18
  Nbeta        = 18

  ==> Algorithm <==

  SCF Algorithm Type is DF.
  DIIS enabled.
  MOM disabled.
  Fractional occupation disabled.
  Guess Type is SAD.
  Energy threshold   = 1.00e-10
  Density threshold  = 1.00e-10
  Integral threshold = 1.00e-12

  ==> Primary Basis <==

  Basis Set: AUG-CC-PVDZ
    Blend: AUG-CC-PVDZ
    Number of shells: 130
    Number of basis functions: 302
    Number of Cartesian functions: 322
    Spherical Harmonics?: true
    Max angular momentum: 2

   => Loading Basis Set <=

    Name: (AUG-CC-PVDZ AUX)
    Role: JKFIT
    Keyword: DF_BASIS_SCF
    atoms 1-2, 10-11 entry N          line   212 file /theoryfs2/ds/csargent/miniconda3/envs/cle/share/psi4/basis/aug-cc-pvdz-jkfit.gbs 
    atoms 3-6, 12-15 entry H          line    70 file /theoryfs2/ds/csargent/miniconda3/envs/cle/share/psi4/basis/aug-cc-pvdz-jkfit.gbs 
    atoms 7-9, 16-18 entry C          line   154 file /theoryfs2/ds/csargent/miniconda3/envs/cle/share/psi4/basis/aug-cc-pvdz-jkfit.gbs 

  ==> Integral Setup <==

  ==> DiskDFJK: Density-Fitted J/K Matrices <==

    J tasked:                  Yes
    K tasked:                  Yes
    wK tasked:                  No
    OpenMP threads:              6
    Integrals threads:           6
    Memory [MiB]:             5006
    Algorithm:                Core
    Integral Cache:           LOAD
    Schwarz Cutoff:          1E-12
    Fitting Condition:       1E-10

   => Auxiliary Basis Set <=

  Basis Set: (AUG-CC-PVDZ AUX)
    Blend: AUG-CC-PVDZ-JKFIT
    Number of shells: 376
    Number of basis functions: 1116
    Number of Cartesian functions: 1290
    Spherical Harmonics?: true
    Max angular momentum: 3

  Minimum eigenvalue in the overlap matrix is 3.0301554832E-05.
  Reciprocal condition number of the overlap matrix is 2.4845120895E-06.
    Using symmetric orthogonalization.

  ==> Pre-Iterations <==

  SCF Guess: Superposition of Atomic Densities via on-the-fly atomic UHF (no occupation information).

   -------------------------
    Irrep   Nso     Nmo    
   -------------------------
     A        302     302 
   -------------------------
    Total     302     302
   -------------------------

  ==> Iterations <==

                           Total Energy        Delta E     RMS |[F,P]|

   @DF-RHF iter SAD:  -224.72194801991699   -2.24722e+02   0.00000e+00 
   @DF-RHF iter   1:  -224.63549262336059    8.64554e-02   1.50473e-03 DIIS
   @DF-RHF iter   2:  -224.73984703834830   -1.04354e-01   6.88463e-04 DIIS
   @DF-RHF iter   3:  -224.76075580019597   -2.09088e-02   1.48627e-04 DIIS
   @DF-RHF iter   4:  -224.76214024709569   -1.38445e-03   6.05313e-05 DIIS
   @DF-RHF iter   5:  -224.76231860275325   -1.78356e-04   1.19894e-05 DIIS
   @DF-RHF iter   6:  -224.76233556026489   -1.69575e-05   4.96772e-06 DIIS
   @DF-RHF iter   7:  -224.76233951631124   -3.95605e-06   2.18807e-06 DIIS
   @DF-RHF iter   8:  -224.76234027705542   -7.60744e-07   1.01700e-06 DIIS
   @DF-RHF iter   9:  -224.76234044469840   -1.67643e-07   2.83302e-07 DIIS
   @DF-RHF iter  10:  -224.76234045351956   -8.82116e-09   8.55553e-08 DIIS
   @DF-RHF iter  11:  -224.76234045420878   -6.89226e-10   1.99716e-08 DIIS
   @DF-RHF iter  12:  -224.76234045425477   -4.59863e-11   5.81096e-09 DIIS
   @DF-RHF iter  13:  -224.76234045425937   -4.60432e-12   2.83104e-09 DIIS
   @DF-RHF iter  14:  -224.76234045425954   -1.70530e-13   9.75239e-10 DIIS
   @DF-RHF iter  15:  -224.76234045426054   -9.94760e-13   4.15563e-10 DIIS
   @DF-RHF iter  16:  -224.76234045426006    4.83169e-13   1.26000e-10 DIIS
   @DF-RHF iter  17:  -224.76234045426014   -8.52651e-14   4.47788e-11 DIIS
  Energy and wave function converged.


  ==> Post-Iterations <==

    Orbital Energies [Eh]
    ---------------------

    Doubly Occupied:                                                      

       1A    -15.636223     2A    -15.592314     3A    -11.279893  
       4A    -11.237784     5A    -11.209891     6A     -1.386922  
       7A     -1.121901     8A     -1.066898     9A     -0.872768  
      10A     -0.837061    11A     -0.757292    12A     -0.645746  
      13A     -0.620834    14A     -0.609139    15A     -0.583920  
      16A     -0.461404    17A     -0.370721    18A     -0.346047  

    Virtual:                                                              

      19A      0.020034    20A      0.028932    21A      0.038317  
      22A      0.041479    23A      0.045222    24A      0.051146  
      25A      0.062784    26A      0.065947    27A      0.083016  
      28A      0.090353    29A      0.097802    30A      0.101036  
      31A      0.104009    32A      0.117095    33A      0.117185  
      34A      0.123589    35A      0.127266    36A      0.127926  
      37A      0.132308    38A      0.132975    39A      0.136527  
      40A      0.138582    41A      0.141735    42A      0.156174  
      43A      0.158660    44A      0.164661    45A      0.165814  
      46A      0.171252    47A      0.176145    48A      0.182554  
      49A      0.194144    50A      0.198076    51A      0.200102  
      52A      0.204936    53A      0.206712    54A      0.221816  
      55A      0.224424    56A      0.228403    57A      0.238687  
      58A      0.240558    59A      0.243647    60A      0.245081  
      61A      0.262832    62A      0.270322    63A      0.271709  
      64A      0.279488    65A      0.301038    66A      0.321137  
      67A      0.326320    68A      0.339077    69A      0.354139  
      70A      0.356096    71A      0.365447    72A      0.372066  
      73A      0.375137    74A      0.382724    75A      0.397047  
      76A      0.402885    77A      0.415502    78A      0.426596  
      79A      0.430930    80A      0.433512    81A      0.440431  
      82A      0.441415    83A      0.444053    84A      0.453400  
      85A      0.454856    86A      0.458221    87A      0.459815  
      88A      0.460668    89A      0.478813    90A      0.498683  
      91A      0.508551    92A      0.508689    93A      0.519233  
      94A      0.522962    95A      0.531782    96A      0.537344  
      97A      0.542081    98A      0.558129    99A      0.567394  
     100A      0.570560   101A      0.578723   102A      0.586998  
     103A      0.590841   104A      0.594226   105A      0.602601  
     106A      0.612899   107A      0.620238   108A      0.621090  
     109A      0.632386   110A      0.646245   111A      0.655467  
     112A      0.676196   113A      0.689772   114A      0.698141  
     115A      0.700706   116A      0.706668   117A      0.718266  
     118A      0.721687   119A      0.725545   120A      0.734625  
     121A      0.745100   122A      0.747896   123A      0.758725  
     124A      0.773378   125A      0.782127   126A      0.788543  
     127A      0.797268   128A      0.813991   129A      0.819851  
     130A      0.828642   131A      0.838458   132A      0.848406  
     133A      0.851010   134A      0.854031   135A      0.870056  
     136A      0.879987   137A      0.881552   138A      0.888982  
     139A      0.894590   140A      0.906995   141A      0.915818  
     142A      0.926730   143A      0.942590   144A      0.951326  
     145A      0.978225   146A      0.984922   147A      0.996073  
     148A      1.011151   149A      1.023161   150A      1.029231  
     151A      1.046722   152A      1.050429   153A      1.066563  
     154A      1.070759   155A      1.080758   156A      1.100894  
     157A      1.107175   158A      1.128065   159A      1.134555  
     160A      1.150350   161A      1.157659   162A      1.165167  
     163A      1.175250   164A      1.185517   165A      1.220311  
     166A      1.220618   167A      1.235805   168A      1.267332  
     169A      1.269950   170A      1.292396   171A      1.303491  
     172A      1.311458   173A      1.314058   174A      1.339663  
     175A      1.368385   176A      1.380906   177A      1.401074  
     178A      1.433748   179A      1.443653   180A      1.475437  
     181A      1.492736   182A      1.506362   183A      1.512040  
     184A      1.526197   185A      1.561344   186A      1.591120  
     187A      1.608761   188A      1.637594   189A      1.669709  
     190A      1.675742   191A      1.687719   192A      1.703880  
     193A      1.724123   194A      1.749326   195A      1.764413  
     196A      1.805087   197A      1.875668   198A      1.932718  
     199A      1.943563   200A      1.988077   201A      2.021569  
     202A      2.040178   203A      2.057808   204A      2.088848  
     205A      2.108150   206A      2.133877   207A      2.144791  
     208A      2.167312   209A      2.190151   210A      2.200848  
     211A      2.215887   212A      2.230465   213A      2.233018  
     214A      2.260972   215A      2.275882   216A      2.276857  
     217A      2.288369   218A      2.307721   219A      2.334660  
     220A      2.360729   221A      2.379707   222A      2.389144  
     223A      2.393437   224A      2.394738   225A      2.435294  
     226A      2.443027   227A      2.465158   228A      2.477697  
     229A      2.499319   230A      2.512165   231A      2.532012  
     232A      2.548638   233A      2.570259   234A      2.584778  
     235A      2.630296   236A      2.643201   237A      2.666458  
     238A      2.701880   239A      2.717930   240A      2.733076  
     241A      2.826900   242A      2.827034   243A      2.834905  
     244A      2.868729   245A      2.889108   246A      2.901623  
     247A      2.918598   248A      2.944193   249A      2.999625  
     250A      3.026942   251A      3.055648   252A      3.088683  
     253A      3.092423   254A      3.122875   255A      3.139064  
     256A      3.180769   257A      3.189039   258A      3.222101  
     259A      3.252999   260A      3.288016   261A      3.297947  
     262A      3.354502   263A      3.381291   264A      3.394640  
     265A      3.422526   266A      3.447318   267A      3.486283  
     268A      3.496627   269A      3.520769   270A      3.632432  
     271A      3.665809   272A      3.686578   273A      3.734672  
     274A      3.769047   275A      3.849766   276A      3.889614  
     277A      3.963903   278A      4.034329   279A      4.093797  
     280A      4.210168   281A      4.243590   282A      4.447131  
     283A      4.463248   284A      4.657244   285A      4.706989  
     286A      4.748996   287A      4.809752   288A      4.995488  
     289A      5.077153   290A      5.240265   291A      5.530545  
     292A      5.668276   293A      5.825613   294A      6.105854  
     295A      6.317411   296A      6.706555   297A      6.966227  
     298A     18.110343   299A     18.647220   300A     19.372875  
     301A     25.244295   302A     25.703974  

    Final Occupation by Irrep:
              A 
    DOCC [    18 ]

  @DF-RHF Final Energy:  -224.76234045426014

   => Energetics <=

    Nuclear Repulsion Energy =            166.6240564503272026
    One-Electron Energy =                -633.4992767754274610
    Two-Electron Energy =                 242.1128798708401177
    Total Energy =                       -224.7623404542601406

Computation Completed


Properties will be evaluated at   0.000000,   0.000000,   0.000000 [a0]

Properties computed using the SCF density matrix

  Nuclear Dipole Moment: [e a0]
     X:   162.5886      Y:  -104.5054      Z:    23.1563

  Electronic Dipole Moment: [e a0]
     X:  -162.9913      Y:   105.1370      Z:   -22.5767

  Dipole Moment: [e a0]
     X:    -0.4027      Y:     0.6317      Z:     0.5796     Total:     0.9472

  Dipole Moment: [D]
     X:    -1.0235      Y:     1.6055      Z:     1.4733     Total:     2.4075


*** tstop() called on ds1 at Mon Oct  4 13:34:58 2021
Module time:
	user time   =      18.80 seconds =       0.31 minutes
	system time =       0.36 seconds =       0.01 minutes
	total time  =          4 seconds =       0.07 minutes
Total time:
	user time   =      44.73 seconds =       0.75 minutes
	system time =       0.95 seconds =       0.02 minutes
	total time  =         10 seconds =       0.17 minutes

  //>>>>>>>>>>>>>>>>>>>>>>>>>>>>>>>>>>>//
  //            Monomer B HF           //
  //<<<<<<<<<<<<<<<<<<<<<<<<<<<<<<<<<<<//


*** tstart() called on ds1
*** at Mon Oct  4 13:34:58 2021

   => Loading Basis Set <=

    Name: AUG-CC-PVDZ
    Role: ORBITAL
    Keyword: BASIS
    atoms 1-2, 10-11 entry N          line   218 file /theoryfs2/ds/csargent/miniconda3/envs/cle/share/psi4/basis/aug-cc-pvdz.gbs 
    atoms 3-6, 12-15 entry H          line    40 file /theoryfs2/ds/csargent/miniconda3/envs/cle/share/psi4/basis/aug-cc-pvdz.gbs 
    atoms 7-9, 16-18 entry C          line   182 file /theoryfs2/ds/csargent/miniconda3/envs/cle/share/psi4/basis/aug-cc-pvdz.gbs 


         ---------------------------------------------------------
                                   SCF
               by Justin Turney, Rob Parrish, Andy Simmonett
                          and Daniel G. A. Smith
                              RHF Reference
                        6 Threads,   6675 MiB Core
         ---------------------------------------------------------

  ==> Geometry <==

    Molecular point group: c1
    Full point group: C1

    Geometry (in Bohr), charge = 0, multiplicity = 1:

       Center              X                  Y                   Z               Mass       
    ------------   -----------------  -----------------  -----------------  -----------------
      Gh(N)           6.279812100000    -4.253033720000     0.193138650000    14.003074004430
      Gh(N)           6.068707770000    -2.281256970000     1.805443170000    14.003074004430
      Gh(H)           3.668711560000    -5.646289410000    -1.966840010000     1.007825032230
      Gh(H)           0.690345210000    -2.375456940000    -0.428642360000     1.007825032230
      Gh(H)           3.359174420000     0.176506010000     3.092650170000     1.007825032230
      Gh(H)           7.352667820000    -1.994613110000     2.906807020000     1.007825032230
      Gh(C)           3.779525860000    -1.215084530000     1.768581720000    12.000000000000
      Gh(C)           2.382429980000    -2.555055380000     0.046076810000    12.000000000000
      Gh(C)           4.017714680000    -4.384104900000    -0.887618630000    12.000000000000
         N           18.274995320000     9.600547450000    14.386973260000    14.003074004430
         N           18.393857580000     7.562640410000    12.849799540000    14.003074004430
         H           20.948158060000    12.001457420000    15.105003610000     1.007825032230
         H           23.842794620000     9.558918670000    12.349866110000     1.007825032230
         H           20.906370540000     5.845869660000    10.445229800000     1.007825032230
         H           16.931449370000     6.752663360000    12.464034220000     1.007825032230
         C           20.676693990000     7.232464740000    11.820750690000    12.000000000000
         C           22.159686420000     9.162136960000    12.710673160000    12.000000000000
         C           20.598381090000    10.547304770000    14.302371110000    12.000000000000

  Running in c1 symmetry.

  Rotational constants: A =      0.03270  B =      0.00133  C =      0.00128 [cm^-1]
  Rotational constants: A =    980.19465  B =     39.91766  C =     38.48322 [MHz]
  Nuclear repulsion =  166.628602688237720

  Charge       = 0
  Multiplicity = 1
  Electrons    = 36
  Nalpha       = 18
  Nbeta        = 18

  ==> Algorithm <==

  SCF Algorithm Type is DF.
  DIIS enabled.
  MOM disabled.
  Fractional occupation disabled.
  Guess Type is SAD.
  Energy threshold   = 1.00e-10
  Density threshold  = 1.00e-10
  Integral threshold = 1.00e-12

  ==> Primary Basis <==

  Basis Set: AUG-CC-PVDZ
    Blend: AUG-CC-PVDZ
    Number of shells: 130
    Number of basis functions: 302
    Number of Cartesian functions: 322
    Spherical Harmonics?: true
    Max angular momentum: 2

   => Loading Basis Set <=

    Name: (AUG-CC-PVDZ AUX)
    Role: JKFIT
    Keyword: DF_BASIS_SCF
    atoms 1-2, 10-11 entry N          line   212 file /theoryfs2/ds/csargent/miniconda3/envs/cle/share/psi4/basis/aug-cc-pvdz-jkfit.gbs 
    atoms 3-6, 12-15 entry H          line    70 file /theoryfs2/ds/csargent/miniconda3/envs/cle/share/psi4/basis/aug-cc-pvdz-jkfit.gbs 
    atoms 7-9, 16-18 entry C          line   154 file /theoryfs2/ds/csargent/miniconda3/envs/cle/share/psi4/basis/aug-cc-pvdz-jkfit.gbs 

  ==> Integral Setup <==

  ==> DiskDFJK: Density-Fitted J/K Matrices <==

    J tasked:                  Yes
    K tasked:                  Yes
    wK tasked:                  No
    OpenMP threads:              6
    Integrals threads:           6
    Memory [MiB]:             5006
    Algorithm:                Core
    Integral Cache:           LOAD
    Schwarz Cutoff:          1E-12
    Fitting Condition:       1E-10

   => Auxiliary Basis Set <=

  Basis Set: (AUG-CC-PVDZ AUX)
    Blend: AUG-CC-PVDZ-JKFIT
    Number of shells: 376
    Number of basis functions: 1116
    Number of Cartesian functions: 1290
    Spherical Harmonics?: true
    Max angular momentum: 3

  Minimum eigenvalue in the overlap matrix is 3.0301554832E-05.
  Reciprocal condition number of the overlap matrix is 2.4845120895E-06.
    Using symmetric orthogonalization.

  ==> Pre-Iterations <==

  SCF Guess: Superposition of Atomic Densities via on-the-fly atomic UHF (no occupation information).

   -------------------------
    Irrep   Nso     Nmo    
   -------------------------
     A        302     302 
   -------------------------
    Total     302     302
   -------------------------

  ==> Iterations <==

                           Total Energy        Delta E     RMS |[F,P]|

   @DF-RHF iter SAD:  -224.72250854214747   -2.24723e+02   0.00000e+00 
   @DF-RHF iter   1:  -224.63556696151949    8.69416e-02   1.50490e-03 DIIS
   @DF-RHF iter   2:  -224.73993404913008   -1.04367e-01   6.88621e-04 DIIS
   @DF-RHF iter   3:  -224.76085182300952   -2.09178e-02   1.48614e-04 DIIS
   @DF-RHF iter   4:  -224.76223602366400   -1.38420e-03   6.05153e-05 DIIS
   @DF-RHF iter   5:  -224.76241426897840   -1.78245e-04   1.19848e-05 DIIS
   @DF-RHF iter   6:  -224.76243120216574   -1.69332e-05   4.96324e-06 DIIS
   @DF-RHF iter   7:  -224.76243515002190   -3.94786e-06   2.18628e-06 DIIS
   @DF-RHF iter   8:  -224.76243590956227   -7.59540e-07   1.01631e-06 DIIS
   @DF-RHF iter   9:  -224.76243607706783   -1.67506e-07   2.83280e-07 DIIS
   @DF-RHF iter  10:  -224.76243608588535   -8.81752e-09   8.55275e-08 DIIS
   @DF-RHF iter  11:  -224.76243608657518   -6.89823e-10   1.99680e-08 DIIS
   @DF-RHF iter  12:  -224.76243608662153   -4.63558e-11   5.80980e-09 DIIS
   @DF-RHF iter  13:  -224.76243608662509   -3.55271e-12   2.83591e-09 DIIS
   @DF-RHF iter  14:  -224.76243608662651   -1.42109e-12   9.79891e-10 DIIS
   @DF-RHF iter  15:  -224.76243608662668   -1.70530e-13   4.16555e-10 DIIS
   @DF-RHF iter  16:  -224.76243608662685   -1.70530e-13   1.25810e-10 DIIS
   @DF-RHF iter  17:  -224.76243608662637    4.83169e-13   4.47615e-11 DIIS
  Energy and wave function converged.


  ==> Post-Iterations <==

    Orbital Energies [Eh]
    ---------------------

    Doubly Occupied:                                                      

       1A    -15.636233     2A    -15.592292     3A    -11.279903  
       4A    -11.237759     5A    -11.209884     6A     -1.387001  
       7A     -1.121894     8A     -1.066927     9A     -0.872759  
      10A     -0.837039    11A     -0.757272    12A     -0.645745  
      13A     -0.620828    14A     -0.609177    15A     -0.583905  
      16A     -0.461413    17A     -0.370715    18A     -0.346054  

    Virtual:                                                              

      19A      0.019863    20A      0.028729    21A      0.038457  
      22A      0.041205    23A      0.045593    24A      0.050747  
      25A      0.062754    26A      0.065960    27A      0.082777  
      28A      0.090036    29A      0.097644    30A      0.101029  
      31A      0.104085    32A      0.117125    33A      0.117248  
      34A      0.123184    35A      0.127115    36A      0.127869  
      37A      0.131990    38A      0.132622    39A      0.136378  
      40A      0.138423    41A      0.142270    42A      0.155939  
      43A      0.158885    44A      0.164855    45A      0.165321  
      46A      0.171066    47A      0.175708    48A      0.184061  
      49A      0.194089    50A      0.197877    51A      0.199812  
      52A      0.204839    53A      0.206451    54A      0.221448  
      55A      0.224182    56A      0.228283    57A      0.238403  
      58A      0.240440    59A      0.243634    60A      0.245049  
      61A      0.262693    62A      0.270289    63A      0.271358  
      64A      0.279553    65A      0.301051    66A      0.320995  
      67A      0.326017    68A      0.339061    69A      0.353777  
      70A      0.356358    71A      0.365293    72A      0.371922  
      73A      0.375099    74A      0.382602    75A      0.397365  
      76A      0.402812    77A      0.415362    78A      0.426518  
      79A      0.430669    80A      0.434155    81A      0.440540  
      82A      0.441209    83A      0.443861    84A      0.453439  
      85A      0.454647    86A      0.457544    87A      0.460201  
      88A      0.460796    89A      0.478974    90A      0.498641  
      91A      0.508390    92A      0.508658    93A      0.518824  
      94A      0.522806    95A      0.531598    96A      0.537170  
      97A      0.541938    98A      0.557955    99A      0.567276  
     100A      0.570385   101A      0.578647   102A      0.586789  
     103A      0.590783   104A      0.594204   105A      0.602590  
     106A      0.612603   107A      0.620036   108A      0.621061  
     109A      0.632321   110A      0.646216   111A      0.655624  
     112A      0.676177   113A      0.689636   114A      0.698075  
     115A      0.700594   116A      0.706479   117A      0.718076  
     118A      0.721695   119A      0.725567   120A      0.734495  
     121A      0.745440   122A      0.747767   123A      0.758713  
     124A      0.773345   125A      0.781932   126A      0.788363  
     127A      0.797054   128A      0.813584   129A      0.819694  
     130A      0.828681   131A      0.838517   132A      0.848462  
     133A      0.850781   134A      0.853875   135A      0.869975  
     136A      0.879869   137A      0.881447   138A      0.888949  
     139A      0.894472   140A      0.907001   141A      0.915525  
     142A      0.927206   143A      0.942624   144A      0.951008  
     145A      0.978217   146A      0.984871   147A      0.995944  
     148A      1.011182   149A      1.022998   150A      1.028938  
     151A      1.046764   152A      1.050244   153A      1.066604  
     154A      1.070481   155A      1.080525   156A      1.100916  
     157A      1.107065   158A      1.128108   159A      1.134546  
     160A      1.150342   161A      1.157717   162A      1.164971  
     163A      1.175229   164A      1.185316   165A      1.220192  
     166A      1.220559   167A      1.235587   168A      1.267316  
     169A      1.269953   170A      1.292229   171A      1.303476  
     172A      1.311498   173A      1.313892   174A      1.339559  
     175A      1.368235   176A      1.380689   177A      1.401076  
     178A      1.433525   179A      1.443418   180A      1.475372  
     181A      1.492426   182A      1.506055   183A      1.512102  
     184A      1.526220   185A      1.561394   186A      1.591260  
     187A      1.608706   188A      1.637491   189A      1.669847  
     190A      1.675583   191A      1.687533   192A      1.703824  
     193A      1.724046   194A      1.749297   195A      1.764439  
     196A      1.805040   197A      1.875601   198A      1.932782  
     199A      1.943563   200A      1.988146   201A      2.021556  
     202A      2.040061   203A      2.057883   204A      2.088828  
     205A      2.107972   206A      2.133773   207A      2.144817  
     208A      2.167167   209A      2.190101   210A      2.200839  
     211A      2.215801   212A      2.230463   213A      2.232870  
     214A      2.260857   215A      2.275906   216A      2.276736  
     217A      2.288189   218A      2.307773   219A      2.334556  
     220A      2.360653   221A      2.379542   222A      2.389191  
     223A      2.393079   224A      2.394904   225A      2.435238  
     226A      2.442919   227A      2.465114   228A      2.477495  
     229A      2.499069   230A      2.511926   231A      2.531921  
     232A      2.548412   233A      2.570217   234A      2.584924  
     235A      2.630159   236A      2.643208   237A      2.666326  
     238A      2.701712   239A      2.717818   240A      2.733059  
     241A      2.826781   242A      2.826905   243A      2.834846  
     244A      2.868513   245A      2.888942   246A      2.901561  
     247A      2.918574   248A      2.944061   249A      2.999656  
     250A      3.026863   251A      3.055589   252A      3.088569  
     253A      3.092554   254A      3.122898   255A      3.138920  
     256A      3.180692   257A      3.189107   258A      3.222105  
     259A      3.252795   260A      3.287922   261A      3.297999  
     262A      3.354404   263A      3.381055   264A      3.394467  
     265A      3.422275   266A      3.447166   267A      3.486021  
     268A      3.496416   269A      3.520796   270A      3.632193  
     271A      3.665600   272A      3.686315   273A      3.734504  
     274A      3.768772   275A      3.849570   276A      3.889511  
     277A      3.963775   278A      4.034003   279A      4.093650  
     280A      4.210005   281A      4.243429   282A      4.447126  
     283A      4.463052   284A      4.656992   285A      4.706740  
     286A      4.748804   287A      4.809468   288A      4.995520  
     289A      5.077098   290A      5.240292   291A      5.530144  
     292A      5.667997   293A      5.825640   294A      6.105335  
     295A      6.317414   296A      6.707190   297A      6.966389  
     298A     18.110184   299A     18.646819   300A     19.372655  
     301A     25.244236   302A     25.703385  

    Final Occupation by Irrep:
              A 
    DOCC [    18 ]

  @DF-RHF Final Energy:  -224.76243608662637

   => Energetics <=

    Nuclear Repulsion Energy =            166.6286026882377200
    One-Electron Energy =                -633.5084777350368768
    Two-Electron Energy =                 242.1174389601727910
    Total Energy =                       -224.7624360866263657

Computation Completed


Properties will be evaluated at   0.000000,   0.000000,   0.000000 [a0]

Properties computed using the SCF density matrix

  Nuclear Dipole Moment: [e a0]
     X:   719.9193      Y:   315.9527      Z:   474.0243

  Electronic Dipole Moment: [e a0]
     X:  -719.6284      Y:  -316.5167      Z:  -474.7274

  Dipole Moment: [e a0]
     X:     0.2909      Y:    -0.5640      Z:    -0.7031     Total:     0.9472

  Dipole Moment: [D]
     X:     0.7394      Y:    -1.4336      Z:    -1.7871     Total:     2.4074


*** tstop() called on ds1 at Mon Oct  4 13:35:02 2021
Module time:
	user time   =      18.61 seconds =       0.31 minutes
	system time =       0.38 seconds =       0.01 minutes
	total time  =          4 seconds =       0.07 minutes
Total time:
	user time   =      63.55 seconds =       1.06 minutes
	system time =       1.33 seconds =       0.02 minutes
	total time  =         14 seconds =       0.23 minutes
  Constructing Basis Sets for SAPT...

   => Loading Basis Set <=

    Name: (AUG-CC-PVDZ AUX)
    Role: RIFIT
    Keyword: DF_BASIS_SAPT
    atoms 1-2, 10-11 entry N          line   158 file /theoryfs2/ds/csargent/miniconda3/envs/cle/share/psi4/basis/aug-cc-pvdz-ri.gbs 
    atoms 3-6, 12-15 entry H          line    30 file /theoryfs2/ds/csargent/miniconda3/envs/cle/share/psi4/basis/aug-cc-pvdz-ri.gbs 
    atoms 7-9, 16-18 entry C          line   112 file /theoryfs2/ds/csargent/miniconda3/envs/cle/share/psi4/basis/aug-cc-pvdz-ri.gbs 


  //>>>>>>>>>>>>>>>>>>>>>>>>>>>>>>>>>>>//
  //               SAPT0               //
  //<<<<<<<<<<<<<<<<<<<<<<<<<<<<<<<<<<<//


*** tstart() called on ds1
*** at Mon Oct  4 13:35:02 2021

        SAPT0  
    Ed Hohenstein
     6 June 2009

      Orbital Information
  --------------------------
    NSO        =       302
    NMO        =       302
    NRI        =       904
    NOCC A     =        18
    NOCC B     =        18
    FOCC A     =         5
    FOCC B     =         5
    NVIR A     =       284
    NVIR B     =       284

    Elst10,r            =     0.000081099574 [Eh]
    Exch10              =     0.000000000001 [Eh]
    Exch10 (S^2)        =     0.000000000001 [Eh]

    Iter     Energy [mEh]          dE [mEh]         Residual      Time [s]
       1      -0.00070561       0.000705613       0.304635569             0
       2      -0.00064538      -0.000060234       0.069505100             0
       3      -0.00071160       0.000066225       0.022769289             0
       4      -0.00071637       0.000004762       0.009065774             0
       5      -0.00071487      -0.000001499       0.004786303             0
       6      -0.00071392      -0.000000948       0.001542458             1
       7      -0.00071398       0.000000063       0.000613625             1
       8      -0.00071416       0.000000181       0.000167298             1
       9      -0.00071413      -0.000000028       0.000068959             1
      10      -0.00071412      -0.000000015       0.000019430             1
      11      -0.00071412       0.000000004       0.000010113             1
      12      -0.00071413       0.000000001       0.000003388             1
      13      -0.00071412      -0.000000001       0.000000910             1

    CHF Iterations converged


    Iter     Energy [mEh]          dE [mEh]         Residual      Time [s]
       1      -0.00064160       0.000641603       0.286827115             1
       2      -0.00058855      -0.000053052       0.066736891             1
       3      -0.00064706       0.000058508       0.023233269             1
       4      -0.00065271       0.000005652       0.008494602             1
       5      -0.00065125      -0.000001456       0.004750643             1
       6      -0.00065033      -0.000000928       0.001511421             1
       7      -0.00065039       0.000000065       0.000588725             1
       8      -0.00065054       0.000000146       0.000191467             1
       9      -0.00065053      -0.000000010       0.000071843             2
      10      -0.00065051      -0.000000019       0.000018119             2
      11      -0.00065051       0.000000004       0.000009875             2
      12      -0.00065051       0.000000001       0.000003244             2
      13      -0.00065051      -0.000000001       0.000000862             2

    CHF Iterations converged

    Ind20,r (A<-B)      =    -0.000000714124 [Eh]
    Ind20,r (B<-A)      =    -0.000000650514 [Eh]
    Ind20,r             =    -0.000001364638 [Eh]
    Exch-Ind20,r (A<-B) =     0.000000000477 [Eh]
    Exch-Ind20,r (B<-A) =     0.000000000521 [Eh]
    Exch-Ind20,r        =     0.000000000998 [Eh]
    Disp20              =    -0.000009217560 [Eh]
    Disp20 (SS)         =    -0.000004608780 [Eh]
    Disp20 (OS)         =    -0.000004608780 [Eh]
    Exch-Disp20         =     0.000000000132 [Eh]
    Exch-Disp20 (SS)    =     0.000000000108 [Eh]
    Exch-Disp20 (OS)    =     0.000000000024 [Eh]

    SAPT Results 
  --------------------------------------------------------------------------------------------------------
    Electrostatics                  0.08109957 [mEh]       0.05089075 [kcal/mol]       0.21292690 [kJ/mol]
      Elst10,r                      0.08109957 [mEh]       0.05089075 [kcal/mol]       0.21292690 [kJ/mol]

    Exchange                        0.00000000 [mEh]       0.00000000 [kcal/mol]       0.00000000 [kJ/mol]
      Exch10                        0.00000000 [mEh]       0.00000000 [kcal/mol]       0.00000000 [kJ/mol]
      Exch10(S^2)                   0.00000000 [mEh]       0.00000000 [kcal/mol]       0.00000000 [kJ/mol]

    Induction                      -0.00120419 [mEh]      -0.00075564 [kcal/mol]      -0.00316160 [kJ/mol]
      Ind20,r                      -0.00136464 [mEh]      -0.00085632 [kcal/mol]      -0.00358286 [kJ/mol]
      Exch-Ind20,r                  0.00000100 [mEh]       0.00000063 [kcal/mol]       0.00000262 [kJ/mol]
      delta HF,r (2)                0.00015945 [mEh]       0.00010006 [kcal/mol]       0.00041864 [kJ/mol]

    Dispersion                     -0.00921743 [mEh]      -0.00578402 [kcal/mol]      -0.02420035 [kJ/mol]
      Disp20                       -0.00921756 [mEh]      -0.00578411 [kcal/mol]      -0.02420070 [kJ/mol]
      Exch-Disp20                   0.00000013 [mEh]       0.00000008 [kcal/mol]       0.00000035 [kJ/mol]
      Disp20 (SS)                  -0.00460878 [mEh]      -0.00289205 [kcal/mol]      -0.01210035 [kJ/mol]
      Disp20 (OS)                  -0.00460878 [mEh]      -0.00289205 [kcal/mol]      -0.01210035 [kJ/mol]
      Exch-Disp20 (SS)              0.00000011 [mEh]       0.00000007 [kcal/mol]       0.00000028 [kJ/mol]
      Exch-Disp20 (OS)              0.00000002 [mEh]       0.00000001 [kcal/mol]       0.00000006 [kJ/mol]

  Total HF                          0.07989538 [mEh]       0.05013511 [kcal/mol]       0.20976530 [kJ/mol]
  Total SAPT0                       0.07067796 [mEh]       0.04435109 [kcal/mol]       0.18556495 [kJ/mol]

  Special recipe for scaled SAPT0 (see Manual):
    Electrostatics sSAPT0           0.08109957 [mEh]       0.05089075 [kcal/mol]       0.21292690 [kJ/mol]
    Exchange sSAPT0                 0.00000000 [mEh]       0.00000000 [kcal/mol]       0.00000000 [kJ/mol]
    Induction sSAPT0               -0.00120419 [mEh]      -0.00075564 [kcal/mol]      -0.00316160 [kJ/mol]
    Dispersion sSAPT0              -0.00921743 [mEh]      -0.00578402 [kcal/mol]      -0.02420035 [kJ/mol]
  Total sSAPT0                      0.07067796 [mEh]       0.04435109 [kcal/mol]       0.18556495 [kJ/mol]
  --------------------------------------------------------------------------------------------------------

*** tstop() called on ds1 at Mon Oct  4 13:35:13 2021
Module time:
	user time   =      47.75 seconds =       0.80 minutes
	system time =       4.37 seconds =       0.07 minutes
	total time  =         11 seconds =       0.18 minutes
Total time:
	user time   =     112.30 seconds =       1.87 minutes
	system time =       5.73 seconds =       0.10 minutes
	total time  =         25 seconds =       0.42 minutes


Warning! sapt0 does not have an associated derived wavefunction.The returned wavefunction is the dimer SCF wavefunction.


    Psi4 stopped on: Monday, 04 October 2021 01:35PM
    Psi4 wall time for execution: 0:00:24.64

*** Psi4 exiting successfully. Buy a developer a beer!
