
    -----------------------------------------------------------------------
          Psi4: An Open-Source Ab Initio Electronic Structure Package
                               Psi4 1.4rc3 

                         Git: Rev {HEAD} 080dba6 


    D. G. A. Smith, L. A. Burns, A. C. Simmonett, R. M. Parrish,
    M. C. Schieber, R. Galvelis, P. Kraus, H. Kruse, R. Di Remigio,
    A. Alenaizan, A. M. James, S. Lehtola, J. P. Misiewicz, M. Scheurer,
    R. A. Shaw, J. B. Schriber, Y. Xie, Z. L. Glick, D. A. Sirianni,
    J. S. O'Brien, J. M. Waldrop, A. Kumar, E. G. Hohenstein,
    B. P. Pritchard, B. R. Brooks, H. F. Schaefer III, A. Yu. Sokolov,
    K. Patkowski, A. E. DePrince III, U. Bozkaya, R. A. King,
    F. A. Evangelista, J. M. Turney, T. D. Crawford, C. D. Sherrill,
    J. Chem. Phys. 152(18) 184108 (2020). https://doi.org/10.1063/5.0006002

                            Additional Code Authors
    E. T. Seidl, C. L. Janssen, E. F. Valeev, M. L. Leininger,
    J. F. Gonthier, R. M. Richard, H. R. McAlexander, M. Saitow, X. Wang,
    P. Verma, and M. H. Lechner

             Previous Authors, Complete List of Code Contributors,
                       and Citations for Specific Modules
    https://github.com/psi4/psi4/blob/master/codemeta.json
    https://github.com/psi4/psi4/graphs/contributors
    http://psicode.org/psi4manual/master/introduction.html#citing-psifour

    -----------------------------------------------------------------------


    Psi4 started on: Monday, 04 October 2021 02:06PM

    Process ID: 9591
    Host:       ds1
    PSIDATADIR: /theoryfs2/ds/csargent/miniconda3/envs/cle/share/psi4
    Memory:     500.0 MiB
    Threads:    6
    
  ==> Input File <==

--------------------------------------------------------------------------
# PSI4 file produced by CrystaLattE

# Generated from:               pyrazole.xyz
# Psithon input for N-mer:      2mer-0+289
# Number of atoms per monomer:  [9, 9]
# Number of replicas:           1
# COM priority:                 3.161525906222e-05
# Minimum COM separations:      16.735 
# Separation priority:          5.598624622171e-05
# Minimum monomer separations:  13.833 
# Cutoff priority:              2.141781352589e-06
# Nuclear repulsion energy:     374.2461852688492

memory 7 GB

molecule Dimer_0_289 {
  N            6.27981210      -4.25303372       0.19313865 
  N            6.06870777      -2.28125697       1.80544317 
  H            3.66871156      -5.64628941      -1.96684001 
  H            0.69034521      -2.37545694      -0.42864236 
  H            3.35917442       0.17650601       3.09265017 
  H            7.35266782      -1.99461311       2.90680702 
  C            3.77952586      -1.21508453       1.76858172 
  C            2.38242998      -2.55505538       0.04607681 
  C            4.01771468      -4.38410490      -0.88761863 
--
  N           26.01342381      14.29484620      11.25733365 
  N           26.13228607      16.33275324      12.79450737 
  H           28.68658654      11.89393623      10.53930329 
  H           31.58122310      14.33647498      13.29444080 
  H           28.64479903      18.04952399      15.19907711 
  H           24.66987785      17.14273029      13.18027269 
  C           28.41512247      16.66292891      13.82355622 
  C           29.89811491      14.73325669      12.93363375 
  C           28.33680957      13.34808888      11.34193580 
units = au
no_com
no_reorient
}

set {
  e_convergence 10
  d_convergence 10
  scf_type df
  mp2_type df
  cc_type df
  freeze_core true
}

energy('sapt0/aug-cc-pvdz')

--------------------------------------------------------------------------

  Memory set to   6.519 GiB by Python driver.

Scratch directory: /scratch/csargent/psi4.7158.66302/

Scratch directory: /scratch/csargent/psi4.7158.66302/

  //>>>>>>>>>>>>>>>>>>>>>>>>>>>>>>>>>>>//
  //              Dimer HF             //
  //<<<<<<<<<<<<<<<<<<<<<<<<<<<<<<<<<<<//


*** tstart() called on ds1
*** at Mon Oct  4 14:06:52 2021

   => Loading Basis Set <=

    Name: AUG-CC-PVDZ
    Role: ORBITAL
    Keyword: BASIS
    atoms 1-2, 10-11 entry N          line   218 file /theoryfs2/ds/csargent/miniconda3/envs/cle/share/psi4/basis/aug-cc-pvdz.gbs 
    atoms 3-6, 12-15 entry H          line    40 file /theoryfs2/ds/csargent/miniconda3/envs/cle/share/psi4/basis/aug-cc-pvdz.gbs 
    atoms 7-9, 16-18 entry C          line   182 file /theoryfs2/ds/csargent/miniconda3/envs/cle/share/psi4/basis/aug-cc-pvdz.gbs 


         ---------------------------------------------------------
                                   SCF
               by Justin Turney, Rob Parrish, Andy Simmonett
                          and Daniel G. A. Smith
                              RHF Reference
                        6 Threads,   6675 MiB Core
         ---------------------------------------------------------

  ==> Geometry <==

    Molecular point group: c1
    Full point group: C1

    Geometry (in Bohr), charge = 0, multiplicity = 1:

       Center              X                  Y                   Z               Mass       
    ------------   -----------------  -----------------  -----------------  -----------------
         N            6.279812100000    -4.253033720000     0.193138650000    14.003074004430
         N            6.068707770000    -2.281256970000     1.805443170000    14.003074004430
         H            3.668711560000    -5.646289410000    -1.966840010000     1.007825032230
         H            0.690345210000    -2.375456940000    -0.428642360000     1.007825032230
         H            3.359174420000     0.176506010000     3.092650170000     1.007825032230
         H            7.352667820000    -1.994613110000     2.906807020000     1.007825032230
         C            3.779525860000    -1.215084530000     1.768581720000    12.000000000000
         C            2.382429980000    -2.555055380000     0.046076810000    12.000000000000
         C            4.017714680000    -4.384104900000    -0.887618630000    12.000000000000
         N           26.013423810000    14.294846200000    11.257333650000    14.003074004430
         N           26.132286070000    16.332753240000    12.794507370000    14.003074004430
         H           28.686586540000    11.893936230000    10.539303290000     1.007825032230
         H           31.581223100000    14.336474980000    13.294440800000     1.007825032230
         H           28.644799030000    18.049523990000    15.199077110000     1.007825032230
         H           24.669877850000    17.142730290000    13.180272690000     1.007825032230
         C           28.415122470000    16.662928910000    13.823556220000    12.000000000000
         C           29.898114910000    14.733256690000    12.933633750000    12.000000000000
         C           28.336809570000    13.348088880000    11.341935800000    12.000000000000

  Running in c1 symmetry.

  Rotational constants: A =      0.03131  B =      0.00076  C =      0.00074 [cm^-1]
  Rotational constants: A =    938.69220  B =     22.80462  C =     22.29183 [MHz]
  Nuclear repulsion =  374.246185212183661

  Charge       = 0
  Multiplicity = 1
  Electrons    = 72
  Nalpha       = 36
  Nbeta        = 36

  ==> Algorithm <==

  SCF Algorithm Type is DF.
  DIIS enabled.
  MOM disabled.
  Fractional occupation disabled.
  Guess Type is SAD.
  Energy threshold   = 1.00e-10
  Density threshold  = 1.00e-10
  Integral threshold = 1.00e-12

  ==> Primary Basis <==

  Basis Set: AUG-CC-PVDZ
    Blend: AUG-CC-PVDZ
    Number of shells: 130
    Number of basis functions: 302
    Number of Cartesian functions: 322
    Spherical Harmonics?: true
    Max angular momentum: 2

   => Loading Basis Set <=

    Name: (AUG-CC-PVDZ AUX)
    Role: JKFIT
    Keyword: DF_BASIS_SCF
    atoms 1-2, 10-11 entry N          line   212 file /theoryfs2/ds/csargent/miniconda3/envs/cle/share/psi4/basis/aug-cc-pvdz-jkfit.gbs 
    atoms 3-6, 12-15 entry H          line    70 file /theoryfs2/ds/csargent/miniconda3/envs/cle/share/psi4/basis/aug-cc-pvdz-jkfit.gbs 
    atoms 7-9, 16-18 entry C          line   154 file /theoryfs2/ds/csargent/miniconda3/envs/cle/share/psi4/basis/aug-cc-pvdz-jkfit.gbs 

  ==> Integral Setup <==

  ==> DiskDFJK: Density-Fitted J/K Matrices <==

    J tasked:                  Yes
    K tasked:                  Yes
    wK tasked:                  No
    OpenMP threads:              6
    Integrals threads:           6
    Memory [MiB]:             5006
    Algorithm:                Core
    Integral Cache:           SAVE
    Schwarz Cutoff:          1E-12
    Fitting Condition:       1E-10

   => Auxiliary Basis Set <=

  Basis Set: (AUG-CC-PVDZ AUX)
    Blend: AUG-CC-PVDZ-JKFIT
    Number of shells: 376
    Number of basis functions: 1116
    Number of Cartesian functions: 1290
    Spherical Harmonics?: true
    Max angular momentum: 3

  Minimum eigenvalue in the overlap matrix is 3.0324469484E-05.
  Reciprocal condition number of the overlap matrix is 2.4867199312E-06.
    Using symmetric orthogonalization.

  ==> Pre-Iterations <==

  SCF Guess: Superposition of Atomic Densities via on-the-fly atomic UHF (no occupation information).

   -------------------------
    Irrep   Nso     Nmo    
   -------------------------
     A        302     302 
   -------------------------
    Total     302     302
   -------------------------

  ==> Iterations <==

                           Total Energy        Delta E     RMS |[F,P]|

   @DF-RHF iter SAD:  -449.44445655749252   -4.49444e+02   0.00000e+00 
   @DF-RHF iter   1:  -449.27111099954612    1.73346e-01   2.12802e-03 DIIS
   @DF-RHF iter   2:  -449.47981299865546   -2.08702e-01   9.73627e-04 DIIS
   @DF-RHF iter   3:  -449.52162906428066   -4.18161e-02   2.10167e-04 DIIS
   @DF-RHF iter   4:  -449.52439724516898   -2.76818e-03   8.55949e-05 DIIS
   @DF-RHF iter   5:  -449.52475383496824   -3.56590e-04   1.69589e-05 DIIS
   @DF-RHF iter   6:  -449.52478772713482   -3.38922e-05   7.02536e-06 DIIS
   @DF-RHF iter   7:  -449.52479562703138   -7.89990e-06   3.10456e-06 DIIS
   @DF-RHF iter   8:  -449.52479715330469   -1.52627e-06   1.43839e-06 DIIS
   @DF-RHF iter   9:  -449.52479748984445   -3.36540e-07   4.01144e-07 DIIS
   @DF-RHF iter  10:  -449.52479750755560   -1.77112e-08   1.20818e-07 DIIS
   @DF-RHF iter  11:  -449.52479750893309   -1.37749e-09   2.82210e-08 DIIS
   @DF-RHF iter  12:  -449.52479750902489   -9.18021e-11   8.20965e-09 DIIS
   @DF-RHF iter  13:  -449.52479750903399   -9.09495e-12   3.99879e-09 DIIS
   @DF-RHF iter  14:  -449.52479750903547   -1.47793e-12   1.37691e-09 DIIS
   @DF-RHF iter  15:  -449.52479750903575   -2.84217e-13   5.87741e-10 DIIS
   @DF-RHF iter  16:  -449.52479750903569    5.68434e-14   1.81055e-10 DIIS
   @DF-RHF iter  17:  -449.52479750903620   -5.11591e-13   6.62855e-11 DIIS
  Energy and wave function converged.


  ==> Post-Iterations <==

    Orbital Energies [Eh]
    ---------------------

    Doubly Occupied:                                                      

       1A    -15.636710     2A    -15.635286     3A    -15.592767  
       4A    -15.591407     5A    -11.280360     6A    -11.278984  
       7A    -11.238225     8A    -11.236893     9A    -11.210321  
      10A    -11.209008    11A     -1.387480    12A     -1.385994  
      13A     -1.122369    14A     -1.120979    15A     -1.067384  
      16A     -1.065997    17A     -0.873223    18A     -0.871855  
      19A     -0.837493    20A     -0.836168    21A     -0.757728  
      22A     -0.756385    23A     -0.646207    24A     -0.644839  
      25A     -0.621278    26A     -0.619945    27A     -0.609655  
      28A     -0.608210    29A     -0.584356    30A     -0.583023  
      31A     -0.461908    32A     -0.460491    33A     -0.371181  
      34A     -0.369813    35A     -0.346517    36A     -0.345144  

    Virtual:                                                              

      37A      0.030299    38A      0.031806    39A      0.042076  
      40A      0.043098    41A      0.048658    42A      0.050102  
      43A      0.063103    44A      0.064409    45A      0.100540  
      46A      0.101964    47A      0.103543    48A      0.104918  
      49A      0.116792    50A      0.117974    51A      0.125831  
      52A      0.127198    53A      0.132627    54A      0.134007  
      55A      0.138052    56A      0.139189    57A      0.141134  
      58A      0.142243    59A      0.156534    60A      0.157689  
      61A      0.164244    62A      0.165368    63A      0.170610  
      64A      0.172015    65A      0.177984    66A      0.179281  
      67A      0.195500    68A      0.197142    69A      0.204286  
      70A      0.205637    71A      0.205750    72A      0.207151  
      73A      0.239777    74A      0.241085    75A      0.243153  
      76A      0.244426    77A      0.244563    78A      0.245868  
      79A      0.270640    80A      0.272028    81A      0.278599  
      82A      0.280089    83A      0.300529    84A      0.301858  
      85A      0.324683    86A      0.326076    87A      0.351908  
      88A      0.353289    89A      0.354925    90A      0.356212  
      91A      0.374470    92A      0.375802    93A      0.395629  
      94A      0.396958    95A      0.402290    96A      0.403666  
      97A      0.414624    98A      0.415809    99A      0.431650  
     100A      0.433103   101A      0.442913   102A      0.444283  
     103A      0.452926   104A      0.454307   105A      0.459390  
     106A      0.460679   107A      0.478174   108A      0.479629  
     109A      0.498097   110A      0.499429   111A      0.508236  
     112A      0.509588   113A      0.521509   114A      0.522823  
     115A      0.541139   116A      0.542435   117A      0.573951  
     118A      0.575389   119A      0.585865   120A      0.587216  
     121A      0.590110   122A      0.591437   123A      0.601985  
     124A      0.603324   125A      0.620539   126A      0.621836  
     127A      0.645679   128A      0.646992   129A      0.654893  
     130A      0.656156   131A      0.675725   132A      0.677047  
     133A      0.697601   134A      0.698930   135A      0.699928  
     136A      0.701298   137A      0.721202   138A      0.722575  
     139A      0.724674   140A      0.726015   141A      0.747266  
     142A      0.748604   143A      0.758200   144A      0.759476  
     145A      0.772845   146A      0.774209   147A      0.780997  
     148A      0.782413   149A      0.828038   150A      0.829410  
     151A      0.837770   152A      0.839152   153A      0.847950  
     154A      0.849279   155A      0.880965   156A      0.882277  
     157A      0.888321   158A      0.889666   159A      0.906497  
     160A      0.907842   161A      0.924325   162A      0.925750  
     163A      0.942136   164A      0.943486   165A      0.977755  
     166A      0.979094   167A      0.984399   168A      0.985742  
     169A      1.010672   170A      1.012057   171A      1.046121  
     172A      1.047552   173A      1.066063   174A      1.067397  
     175A      1.100373   176A      1.101803   177A      1.127638  
     178A      1.128945   179A      1.133681   180A      1.135116  
     181A      1.149791   182A      1.151118   183A      1.174715  
     184A      1.176066   185A      1.220061   186A      1.221456  
     187A      1.269109   188A      1.270457   189A      1.302915  
     190A      1.304262   191A      1.310948   192A      1.312318  
     193A      1.365320   194A      1.366730   195A      1.400600  
     196A      1.401924   197A      1.474211   198A      1.475633  
     199A      1.511544   200A      1.512955   201A      1.525693  
     202A      1.527017   203A      1.560526   204A      1.561882  
     205A      1.590452   206A      1.591774   207A      1.608234  
     208A      1.609552   209A      1.637000   210A      1.638305  
     211A      1.669054   212A      1.670359   213A      1.703177  
     214A      1.704540   215A      1.723494   216A      1.724854  
     217A      1.748792   218A      1.750109   219A      1.763910  
     220A      1.765281   221A      1.804567   222A      1.805944  
     223A      1.875137   224A      1.876536   225A      1.931947  
     226A      1.933294   227A      1.943128   228A      1.944433  
     229A      1.987692   230A      1.988944   231A      2.020990  
     232A      2.022348   233A      2.057206   234A      2.058513  
     235A      2.088351   236A      2.089762   237A      2.144244  
     238A      2.145593   239A      2.189551   240A      2.190907  
     241A      2.200381   242A      2.201712   243A      2.229983  
     244A      2.231378   245A      2.275390   246A      2.276703  
     247A      2.307172   248A      2.308566   249A      2.360196  
     250A      2.361605   251A      2.388653   252A      2.390039  
     253A      2.393264   254A      2.394799   255A      2.434714  
     256A      2.436183   257A      2.464446   258A      2.465930  
     259A      2.531319   260A      2.532707   261A      2.569727  
     262A      2.571139   263A      2.584334   264A      2.585666  
     265A      2.642490   266A      2.643882   267A      2.732549  
     268A      2.733957   269A      2.826339   270A      2.827742  
     271A      2.834241   272A      2.835658   273A      2.901063  
     274A      2.902509   275A      2.918083   276A      2.919541  
     277A      2.998733   278A      3.000068   279A      3.054839  
     280A      3.056244   281A      3.091960   282A      3.093280  
     283A      3.122239   284A      3.123642   285A      3.188550  
     286A      3.189825   287A      3.221573   288A      3.222911  
     289A      3.297440   290A      3.298777   291A      3.379773  
     292A      3.381136   293A      3.520288   294A      3.521651  
     295A      3.685844   296A      3.687461   297A      3.888767  
     298A      3.890263   299A      4.208833   300A      4.210345  
     301A      4.462589   302A      4.464121  

    Final Occupation by Irrep:
              A 
    DOCC [    36 ]

  @DF-RHF Final Energy:  -449.52479750903620

   => Energetics <=

    Nuclear Repulsion Energy =            374.2461852121836614
    One-Electron Energy =               -1349.0108062375375084
    Two-Electron Energy =                 525.2398235163175286
    Total Energy =                       -449.5247975090362615

Computation Completed


Properties will be evaluated at   0.000000,   0.000000,   0.000000 [a0]

Properties computed using the SCF density matrix

  Nuclear Dipole Moment: [e a0]
     X:  1161.0913      Y:   439.7762      Z:   472.3270

  Electronic Dipole Moment: [e a0]
     X: -1161.1985      Y:  -438.5790      Z:  -471.0436

  Dipole Moment: [e a0]
     X:    -0.1072      Y:     1.1972      Z:     1.2835     Total:     1.7584

  Dipole Moment: [D]
     X:    -0.2725      Y:     3.0429      Z:     3.2622     Total:     4.4694


*** tstop() called on ds1 at Mon Oct  4 14:06:56 2021
Module time:
	user time   =      23.28 seconds =       0.39 minutes
	system time =       0.58 seconds =       0.01 minutes
	total time  =          4 seconds =       0.07 minutes
Total time:
	user time   =      23.28 seconds =       0.39 minutes
	system time =       0.58 seconds =       0.01 minutes
	total time  =          4 seconds =       0.07 minutes

  //>>>>>>>>>>>>>>>>>>>>>>>>>>>>>>>>>>>//
  //            Monomer A HF           //
  //<<<<<<<<<<<<<<<<<<<<<<<<<<<<<<<<<<<//


*** tstart() called on ds1
*** at Mon Oct  4 14:06:56 2021

   => Loading Basis Set <=

    Name: AUG-CC-PVDZ
    Role: ORBITAL
    Keyword: BASIS
    atoms 1-2, 10-11 entry N          line   218 file /theoryfs2/ds/csargent/miniconda3/envs/cle/share/psi4/basis/aug-cc-pvdz.gbs 
    atoms 3-6, 12-15 entry H          line    40 file /theoryfs2/ds/csargent/miniconda3/envs/cle/share/psi4/basis/aug-cc-pvdz.gbs 
    atoms 7-9, 16-18 entry C          line   182 file /theoryfs2/ds/csargent/miniconda3/envs/cle/share/psi4/basis/aug-cc-pvdz.gbs 


         ---------------------------------------------------------
                                   SCF
               by Justin Turney, Rob Parrish, Andy Simmonett
                          and Daniel G. A. Smith
                              RHF Reference
                        6 Threads,   6675 MiB Core
         ---------------------------------------------------------

  ==> Geometry <==

    Molecular point group: c1
    Full point group: C1

    Geometry (in Bohr), charge = 0, multiplicity = 1:

       Center              X                  Y                   Z               Mass       
    ------------   -----------------  -----------------  -----------------  -----------------
         N            6.279812100000    -4.253033720000     0.193138650000    14.003074004430
         N            6.068707770000    -2.281256970000     1.805443170000    14.003074004430
         H            3.668711560000    -5.646289410000    -1.966840010000     1.007825032230
         H            0.690345210000    -2.375456940000    -0.428642360000     1.007825032230
         H            3.359174420000     0.176506010000     3.092650170000     1.007825032230
         H            7.352667820000    -1.994613110000     2.906807020000     1.007825032230
         C            3.779525860000    -1.215084530000     1.768581720000    12.000000000000
         C            2.382429980000    -2.555055380000     0.046076810000    12.000000000000
         C            4.017714680000    -4.384104900000    -0.887618630000    12.000000000000
      Gh(N)          26.013423810000    14.294846200000    11.257333650000    14.003074004430
      Gh(N)          26.132286070000    16.332753240000    12.794507370000    14.003074004430
      Gh(H)          28.686586540000    11.893936230000    10.539303290000     1.007825032230
      Gh(H)          31.581223100000    14.336474980000    13.294440800000     1.007825032230
      Gh(H)          28.644799030000    18.049523990000    15.199077110000     1.007825032230
      Gh(H)          24.669877850000    17.142730290000    13.180272690000     1.007825032230
      Gh(C)          28.415122470000    16.662928910000    13.823556220000    12.000000000000
      Gh(C)          29.898114910000    14.733256690000    12.933633750000    12.000000000000
      Gh(C)          28.336809570000    13.348088880000    11.341935800000    12.000000000000

  Running in c1 symmetry.

  Rotational constants: A =      0.03131  B =      0.00076  C =      0.00074 [cm^-1]
  Rotational constants: A =    938.69220  B =     22.80462  C =     22.29183 [MHz]
  Nuclear repulsion =  166.624056450327203

  Charge       = 0
  Multiplicity = 1
  Electrons    = 36
  Nalpha       = 18
  Nbeta        = 18

  ==> Algorithm <==

  SCF Algorithm Type is DF.
  DIIS enabled.
  MOM disabled.
  Fractional occupation disabled.
  Guess Type is SAD.
  Energy threshold   = 1.00e-10
  Density threshold  = 1.00e-10
  Integral threshold = 1.00e-12

  ==> Primary Basis <==

  Basis Set: AUG-CC-PVDZ
    Blend: AUG-CC-PVDZ
    Number of shells: 130
    Number of basis functions: 302
    Number of Cartesian functions: 322
    Spherical Harmonics?: true
    Max angular momentum: 2

   => Loading Basis Set <=

    Name: (AUG-CC-PVDZ AUX)
    Role: JKFIT
    Keyword: DF_BASIS_SCF
    atoms 1-2, 10-11 entry N          line   212 file /theoryfs2/ds/csargent/miniconda3/envs/cle/share/psi4/basis/aug-cc-pvdz-jkfit.gbs 
    atoms 3-6, 12-15 entry H          line    70 file /theoryfs2/ds/csargent/miniconda3/envs/cle/share/psi4/basis/aug-cc-pvdz-jkfit.gbs 
    atoms 7-9, 16-18 entry C          line   154 file /theoryfs2/ds/csargent/miniconda3/envs/cle/share/psi4/basis/aug-cc-pvdz-jkfit.gbs 

  ==> Integral Setup <==

  ==> DiskDFJK: Density-Fitted J/K Matrices <==

    J tasked:                  Yes
    K tasked:                  Yes
    wK tasked:                  No
    OpenMP threads:              6
    Integrals threads:           6
    Memory [MiB]:             5006
    Algorithm:                Core
    Integral Cache:           LOAD
    Schwarz Cutoff:          1E-12
    Fitting Condition:       1E-10

   => Auxiliary Basis Set <=

  Basis Set: (AUG-CC-PVDZ AUX)
    Blend: AUG-CC-PVDZ-JKFIT
    Number of shells: 376
    Number of basis functions: 1116
    Number of Cartesian functions: 1290
    Spherical Harmonics?: true
    Max angular momentum: 3

  Minimum eigenvalue in the overlap matrix is 3.0324469484E-05.
  Reciprocal condition number of the overlap matrix is 2.4867199312E-06.
    Using symmetric orthogonalization.

  ==> Pre-Iterations <==

  SCF Guess: Superposition of Atomic Densities via on-the-fly atomic UHF (no occupation information).

   -------------------------
    Irrep   Nso     Nmo    
   -------------------------
     A        302     302 
   -------------------------
    Total     302     302
   -------------------------

  ==> Iterations <==

                           Total Energy        Delta E     RMS |[F,P]|

   @DF-RHF iter SAD:  -224.72194801284044   -2.24722e+02   0.00000e+00 
   @DF-RHF iter   1:  -224.63549170123210    8.64563e-02   1.50472e-03 DIIS
   @DF-RHF iter   2:  -224.73984613397312   -1.04354e-01   6.88462e-04 DIIS
   @DF-RHF iter   3:  -224.76075487277052   -2.09087e-02   1.48626e-04 DIIS
   @DF-RHF iter   4:  -224.76213931655906   -1.38444e-03   6.05310e-05 DIIS
   @DF-RHF iter   5:  -224.76231767131824   -1.78355e-04   1.19893e-05 DIIS
   @DF-RHF iter   6:  -224.76233462879307   -1.69575e-05   4.96772e-06 DIIS
   @DF-RHF iter   7:  -224.76233858483036   -3.95604e-06   2.18806e-06 DIIS
   @DF-RHF iter   8:  -224.76233934557305   -7.60743e-07   1.01700e-06 DIIS
   @DF-RHF iter   9:  -224.76233951321461   -1.67642e-07   2.83302e-07 DIIS
   @DF-RHF iter  10:  -224.76233952203589   -8.82127e-09   8.55547e-08 DIIS
   @DF-RHF iter  11:  -224.76233952272531   -6.89425e-10   1.99714e-08 DIIS
   @DF-RHF iter  12:  -224.76233952277138   -4.60716e-11   5.81092e-09 DIIS
   @DF-RHF iter  13:  -224.76233952277570   -4.32010e-12   2.83097e-09 DIIS
   @DF-RHF iter  14:  -224.76233952277673   -1.02318e-12   9.75191e-10 DIIS
   @DF-RHF iter  15:  -224.76233952277693   -1.98952e-13   4.15548e-10 DIIS
   @DF-RHF iter  16:  -224.76233952277664    2.84217e-13   1.25997e-10 DIIS
   @DF-RHF iter  17:  -224.76233952277673   -8.52651e-14   4.47783e-11 DIIS
  Energy and wave function converged.


  ==> Post-Iterations <==

    Orbital Energies [Eh]
    ---------------------

    Doubly Occupied:                                                      

       1A    -15.636223     2A    -15.592313     3A    -11.279894  
       4A    -11.237784     5A    -11.209891     6A     -1.386922  
       7A     -1.121901     8A     -1.066898     9A     -0.872768  
      10A     -0.837061    11A     -0.757292    12A     -0.645746  
      13A     -0.620834    14A     -0.609140    15A     -0.583920  
      16A     -0.461404    17A     -0.370721    18A     -0.346048  

    Virtual:                                                              

      19A      0.022272    20A      0.030764    21A      0.039676  
      22A      0.042368    23A      0.043700    24A      0.049160  
      25A      0.063519    26A      0.065459    27A      0.083585  
      28A      0.090330    29A      0.098510    30A      0.100998  
      31A      0.104029    32A      0.117179    33A      0.118011  
      34A      0.125487    35A      0.126269    36A      0.127905  
      37A      0.132976    38A      0.133086    39A      0.133751  
      40A      0.138403    41A      0.141490    42A      0.156889  
      43A      0.158205    44A      0.164592    45A      0.165563  
      46A      0.171075    47A      0.178408    48A      0.178770  
      49A      0.195014    50A      0.196042    51A      0.201004  
      52A      0.204793    53A      0.206162    54A      0.222437  
      55A      0.224761    56A      0.227858    57A      0.235114  
      58A      0.240236    59A      0.243626    60A      0.244965  
      61A      0.263599    62A      0.270541    63A      0.271127  
      64A      0.279081    65A      0.301010    66A      0.321495  
      67A      0.325148    68A      0.339694    69A      0.352358  
      70A      0.355357    71A      0.366140    72A      0.372536  
      73A      0.374907    74A      0.383354    75A      0.396061  
      76A      0.402741    77A      0.414998    78A      0.427057  
      79A      0.431697    80A      0.432132    81A      0.440843  
      82A      0.441994    83A      0.443385    84A      0.453393  
      85A      0.455574    86A      0.457045    87A      0.459816  
      88A      0.461464    89A      0.478655    90A      0.498543  
      91A      0.508690    92A      0.509314    93A      0.518998  
      94A      0.521917    95A      0.532697    96A      0.537676  
      97A      0.541560    98A      0.558932    99A      0.568351  
     100A      0.571496   101A      0.574433   102A      0.586319  
     103A      0.590538   104A      0.594802   105A      0.602413  
     106A      0.613005   107A      0.620829   108A      0.620953  
     109A      0.633139   110A      0.646110   111A      0.655295  
     112A      0.676162   113A      0.690459   114A      0.698041  
     115A      0.700391   116A      0.707413   117A      0.719065  
     118A      0.721667   119A      0.725115   120A      0.735303  
     121A      0.745010   122A      0.747709   123A      0.758592  
     124A      0.773318   125A      0.781481   126A      0.789293  
     127A      0.797718   128A      0.814088   129A      0.820532  
     130A      0.828504   131A      0.838230   132A      0.848394  
     133A      0.851605   134A      0.854733   135A      0.870657  
     136A      0.880720   137A      0.881395   138A      0.888767  
     139A      0.895313   140A      0.906950   141A      0.915772  
     142A      0.924815   143A      0.942582   144A      0.951711  
     145A      0.978222   146A      0.984850   147A      0.996802  
     148A      1.011149   149A      1.023832   150A      1.029842  
     151A      1.046606   152A      1.051269   153A      1.066503  
     154A      1.070824   155A      1.080677   156A      1.100852  
     157A      1.107821   158A      1.128058   159A      1.134196  
     160A      1.150235   161A      1.158429   162A      1.165950  
     163A      1.175168   164A      1.184655   165A      1.220548  
     166A      1.221356   167A      1.236712   168A      1.267630  
     169A      1.269556   170A      1.293365   171A      1.303342  
     172A      1.311399   173A      1.314825   174A      1.340365  
     175A      1.365807   176A      1.381529   177A      1.401043  
     178A      1.434650   179A      1.444402   180A      1.474691  
     181A      1.492875   182A      1.506735   183A      1.512027  
     184A      1.526129   185A      1.560989   186A      1.590882  
     187A      1.608669   188A      1.637437   189A      1.669472  
     190A      1.676378   191A      1.688540   192A      1.703634  
     193A      1.723950   194A      1.749215   195A      1.764373  
     196A      1.805048   197A      1.875632   198A      1.932390  
     199A      1.943558   200A      1.988067   201A      2.021445  
     202A      2.040835   203A      2.057611   204A      2.088839  
     205A      2.108836   206A      2.134552   207A      2.144687  
     208A      2.167908   209A      2.190005   210A      2.200827  
     211A      2.216366   212A      2.230457   213A      2.233628  
     214A      2.261625   215A      2.275825   216A      2.277484  
     217A      2.289018   218A      2.307640   219A      2.335386  
     220A      2.360716   221A      2.380348   222A      2.389130  
     223A      2.393822   224A      2.394282   225A      2.435246  
     226A      2.443618   227A      2.464967   228A      2.478060  
     229A      2.499726   230A      2.513313   231A      2.531798  
     232A      2.548588   233A      2.570232   234A      2.584716  
     235A      2.631064   236A      2.642961   237A      2.667253  
     238A      2.702740   239A      2.718627   240A      2.733029  
     241A      2.826837   242A      2.827692   243A      2.834751  
     244A      2.869509   245A      2.889778   246A      2.901587  
     247A      2.918598   248A      2.944817   249A      2.999157  
     250A      3.027719   251A      3.055324   252A      3.089477  
     253A      3.092358   254A      3.122730   255A      3.139788  
     256A      3.181599   257A      3.188930   258A      3.222008  
     259A      3.253854   260A      3.288814   261A      3.297865  
     262A      3.355353   263A      3.380236   264A      3.395318  
     265A      3.423094   266A      3.447938   267A      3.486933  
     268A      3.497313   269A      3.520727   270A      3.633290  
     271A      3.666671   272A      3.686563   273A      3.735363  
     274A      3.769809   275A      3.850815   276A      3.889327  
     277A      3.964291   278A      4.035306   279A      4.094468  
     280A      4.209428   281A      4.243793   282A      4.447964  
     283A      4.463235   284A      4.658150   285A      4.707853  
     286A      4.749697   287A      4.810550   288A      4.994581  
     289A      5.076416   290A      5.240969   291A      5.531188  
     292A      5.668714   293A      5.826378   294A      6.106734  
     295A      6.317983   296A      6.707331   297A      6.967203  
     298A     18.110959   299A     18.647824   300A     19.373476  
     301A     25.245102   302A     25.705001  

    Final Occupation by Irrep:
              A 
    DOCC [    18 ]

  @DF-RHF Final Energy:  -224.76233952277673

   => Energetics <=

    Nuclear Repulsion Energy =            166.6240564503272026
    One-Electron Energy =                -633.4992733923245396
    Two-Electron Energy =                 242.1128774192206095
    Total Energy =                       -224.7623395227767276

Computation Completed


Properties will be evaluated at   0.000000,   0.000000,   0.000000 [a0]

Properties computed using the SCF density matrix

  Nuclear Dipole Moment: [e a0]
     X:   162.5886      Y:  -104.5054      Z:    23.1563

  Electronic Dipole Moment: [e a0]
     X:  -162.9913      Y:   105.1370      Z:   -22.5767

  Dipole Moment: [e a0]
     X:    -0.4027      Y:     0.6317      Z:     0.5796     Total:     0.9472

  Dipole Moment: [D]
     X:    -1.0235      Y:     1.6055      Z:     1.4733     Total:     2.4075


*** tstop() called on ds1 at Mon Oct  4 14:07:00 2021
Module time:
	user time   =      16.26 seconds =       0.27 minutes
	system time =       0.35 seconds =       0.01 minutes
	total time  =          4 seconds =       0.07 minutes
Total time:
	user time   =      39.64 seconds =       0.66 minutes
	system time =       0.94 seconds =       0.02 minutes
	total time  =          8 seconds =       0.13 minutes

  //>>>>>>>>>>>>>>>>>>>>>>>>>>>>>>>>>>>//
  //            Monomer B HF           //
  //<<<<<<<<<<<<<<<<<<<<<<<<<<<<<<<<<<<//


*** tstart() called on ds1
*** at Mon Oct  4 14:07:00 2021

   => Loading Basis Set <=

    Name: AUG-CC-PVDZ
    Role: ORBITAL
    Keyword: BASIS
    atoms 1-2, 10-11 entry N          line   218 file /theoryfs2/ds/csargent/miniconda3/envs/cle/share/psi4/basis/aug-cc-pvdz.gbs 
    atoms 3-6, 12-15 entry H          line    40 file /theoryfs2/ds/csargent/miniconda3/envs/cle/share/psi4/basis/aug-cc-pvdz.gbs 
    atoms 7-9, 16-18 entry C          line   182 file /theoryfs2/ds/csargent/miniconda3/envs/cle/share/psi4/basis/aug-cc-pvdz.gbs 


         ---------------------------------------------------------
                                   SCF
               by Justin Turney, Rob Parrish, Andy Simmonett
                          and Daniel G. A. Smith
                              RHF Reference
                        6 Threads,   6675 MiB Core
         ---------------------------------------------------------

  ==> Geometry <==

    Molecular point group: c1
    Full point group: C1

    Geometry (in Bohr), charge = 0, multiplicity = 1:

       Center              X                  Y                   Z               Mass       
    ------------   -----------------  -----------------  -----------------  -----------------
      Gh(N)           6.279812100000    -4.253033720000     0.193138650000    14.003074004430
      Gh(N)           6.068707770000    -2.281256970000     1.805443170000    14.003074004430
      Gh(H)           3.668711560000    -5.646289410000    -1.966840010000     1.007825032230
      Gh(H)           0.690345210000    -2.375456940000    -0.428642360000     1.007825032230
      Gh(H)           3.359174420000     0.176506010000     3.092650170000     1.007825032230
      Gh(H)           7.352667820000    -1.994613110000     2.906807020000     1.007825032230
      Gh(C)           3.779525860000    -1.215084530000     1.768581720000    12.000000000000
      Gh(C)           2.382429980000    -2.555055380000     0.046076810000    12.000000000000
      Gh(C)           4.017714680000    -4.384104900000    -0.887618630000    12.000000000000
         N           26.013423810000    14.294846200000    11.257333650000    14.003074004430
         N           26.132286070000    16.332753240000    12.794507370000    14.003074004430
         H           28.686586540000    11.893936230000    10.539303290000     1.007825032230
         H           31.581223100000    14.336474980000    13.294440800000     1.007825032230
         H           28.644799030000    18.049523990000    15.199077110000     1.007825032230
         H           24.669877850000    17.142730290000    13.180272690000     1.007825032230
         C           28.415122470000    16.662928910000    13.823556220000    12.000000000000
         C           29.898114910000    14.733256690000    12.933633750000    12.000000000000
         C           28.336809570000    13.348088880000    11.341935800000    12.000000000000

  Running in c1 symmetry.

  Rotational constants: A =      0.03131  B =      0.00076  C =      0.00074 [cm^-1]
  Rotational constants: A =    938.69220  B =     22.80462  C =     22.29183 [MHz]
  Nuclear repulsion =  166.628602759769677

  Charge       = 0
  Multiplicity = 1
  Electrons    = 36
  Nalpha       = 18
  Nbeta        = 18

  ==> Algorithm <==

  SCF Algorithm Type is DF.
  DIIS enabled.
  MOM disabled.
  Fractional occupation disabled.
  Guess Type is SAD.
  Energy threshold   = 1.00e-10
  Density threshold  = 1.00e-10
  Integral threshold = 1.00e-12

  ==> Primary Basis <==

  Basis Set: AUG-CC-PVDZ
    Blend: AUG-CC-PVDZ
    Number of shells: 130
    Number of basis functions: 302
    Number of Cartesian functions: 322
    Spherical Harmonics?: true
    Max angular momentum: 2

   => Loading Basis Set <=

    Name: (AUG-CC-PVDZ AUX)
    Role: JKFIT
    Keyword: DF_BASIS_SCF
    atoms 1-2, 10-11 entry N          line   212 file /theoryfs2/ds/csargent/miniconda3/envs/cle/share/psi4/basis/aug-cc-pvdz-jkfit.gbs 
    atoms 3-6, 12-15 entry H          line    70 file /theoryfs2/ds/csargent/miniconda3/envs/cle/share/psi4/basis/aug-cc-pvdz-jkfit.gbs 
    atoms 7-9, 16-18 entry C          line   154 file /theoryfs2/ds/csargent/miniconda3/envs/cle/share/psi4/basis/aug-cc-pvdz-jkfit.gbs 

  ==> Integral Setup <==

  ==> DiskDFJK: Density-Fitted J/K Matrices <==

    J tasked:                  Yes
    K tasked:                  Yes
    wK tasked:                  No
    OpenMP threads:              6
    Integrals threads:           6
    Memory [MiB]:             5006
    Algorithm:                Core
    Integral Cache:           LOAD
    Schwarz Cutoff:          1E-12
    Fitting Condition:       1E-10

   => Auxiliary Basis Set <=

  Basis Set: (AUG-CC-PVDZ AUX)
    Blend: AUG-CC-PVDZ-JKFIT
    Number of shells: 376
    Number of basis functions: 1116
    Number of Cartesian functions: 1290
    Spherical Harmonics?: true
    Max angular momentum: 3

  Minimum eigenvalue in the overlap matrix is 3.0324469484E-05.
  Reciprocal condition number of the overlap matrix is 2.4867199312E-06.
    Using symmetric orthogonalization.

  ==> Pre-Iterations <==

  SCF Guess: Superposition of Atomic Densities via on-the-fly atomic UHF (no occupation information).

   -------------------------
    Irrep   Nso     Nmo    
   -------------------------
     A        302     302 
   -------------------------
    Total     302     302
   -------------------------

  ==> Iterations <==

                           Total Energy        Delta E     RMS |[F,P]|

   @DF-RHF iter SAD:  -224.72250854458559   -2.24723e+02   0.00000e+00 
   @DF-RHF iter   1:  -224.63556596383646    8.69426e-02   1.50490e-03 DIIS
   @DF-RHF iter   2:  -224.73993305146877   -1.04367e-01   6.88620e-04 DIIS
   @DF-RHF iter   3:  -224.76085080480678   -2.09178e-02   1.48614e-04 DIIS
   @DF-RHF iter   4:  -224.76223500347626   -1.38420e-03   6.05151e-05 DIIS
   @DF-RHF iter   5:  -224.76241324797917   -1.78245e-04   1.19848e-05 DIIS
   @DF-RHF iter   6:  -224.76243018112805   -1.69331e-05   4.96323e-06 DIIS
   @DF-RHF iter   7:  -224.76243412897128   -3.94784e-06   2.18627e-06 DIIS
   @DF-RHF iter   8:  -224.76243488851043   -7.59539e-07   1.01631e-06 DIIS
   @DF-RHF iter   9:  -224.76243505601482   -1.67504e-07   2.83280e-07 DIIS
   @DF-RHF iter  10:  -224.76243506483257   -8.81775e-09   8.55270e-08 DIIS
   @DF-RHF iter  11:  -224.76243506552237   -6.89795e-10   1.99678e-08 DIIS
   @DF-RHF iter  12:  -224.76243506556827   -4.59011e-11   5.80973e-09 DIIS
   @DF-RHF iter  13:  -224.76243506557233   -4.06430e-12   2.83582e-09 DIIS
   @DF-RHF iter  14:  -224.76243506557319   -8.52651e-13   9.79832e-10 DIIS
   @DF-RHF iter  15:  -224.76243506557375   -5.68434e-13   4.16538e-10 DIIS
   @DF-RHF iter  16:  -224.76243506557341    3.41061e-13   1.25808e-10 DIIS
   @DF-RHF iter  17:  -224.76243506557353   -1.13687e-13   4.47605e-11 DIIS
  Energy and wave function converged.


  ==> Post-Iterations <==

    Orbital Energies [Eh]
    ---------------------

    Doubly Occupied:                                                      

       1A    -15.636233     2A    -15.592291     3A    -11.279903  
       4A    -11.237759     5A    -11.209884     6A     -1.387001  
       7A     -1.121894     8A     -1.066928     9A     -0.872759  
      10A     -0.837039    11A     -0.757272    12A     -0.645745  
      13A     -0.620828    14A     -0.609177    15A     -0.583905  
      16A     -0.461413    17A     -0.370715    18A     -0.346055  

    Virtual:                                                              

      19A      0.023592    20A      0.030764    21A      0.040903  
      22A      0.042369    23A      0.045071    24A      0.049159  
      25A      0.063518    26A      0.066835    27A      0.084882  
      28A      0.091734    29A      0.099852    30A      0.101001  
      31A      0.104028    32A      0.117186    33A      0.119206  
      34A      0.126272    35A      0.126698    36A      0.129121  
      37A      0.133070    38A      0.134259    39A      0.135012  
      40A      0.138399    41A      0.141487    42A      0.156889  
      43A      0.159357    44A      0.164594    45A      0.166876  
      46A      0.171081    47A      0.178400    48A      0.180183  
      49A      0.196040    50A      0.196495    51A      0.202528  
      52A      0.204806    53A      0.206166    54A      0.223938  
      55A      0.226034    56A      0.229174    57A      0.236586  
      58A      0.240240    59A      0.243627    60A      0.244965  
      61A      0.264997    62A      0.271138    63A      0.272062  
      64A      0.279081    65A      0.301024    66A      0.322868  
      67A      0.325138    68A      0.341016    69A      0.352355  
      70A      0.355359    71A      0.367502    72A      0.373770  
      73A      0.374909    74A      0.384636    75A      0.396062  
      76A      0.402744    77A      0.415005    78A      0.428471  
      79A      0.432132    80A      0.432962    81A      0.442037  
      82A      0.443224    83A      0.443379    84A      0.453414  
      85A      0.456992    86A      0.458358    87A      0.459817  
      88A      0.462866    89A      0.478656    90A      0.498544  
      91A      0.508693    92A      0.510691    93A      0.520470  
      94A      0.521953    95A      0.534150    96A      0.538948  
      97A      0.541569    98A      0.560279    99A      0.569903  
     100A      0.572738   101A      0.574428   102A      0.586322  
     103A      0.590547   104A      0.596079   105A      0.602431  
     106A      0.614287   107A      0.620974   108A      0.622223  
     109A      0.634476   110A      0.646111   111A      0.655304  
     112A      0.676168   113A      0.691758   114A      0.698039  
     115A      0.700384   116A      0.708786   117A      0.720393  
     118A      0.721648   119A      0.725121   120A      0.736598  
     121A      0.746269   122A      0.747717   123A      0.758643  
     124A      0.773300   125A      0.781476   126A      0.790653  
     127A      0.799104   128A      0.815375   129A      0.821861  
     130A      0.828513   131A      0.838238   132A      0.848382  
     133A      0.852859   134A      0.856064   135A      0.871929  
     136A      0.881397   137A      0.881992   138A      0.888762  
     139A      0.896623   140A      0.906950   141A      0.917161  
     142A      0.924803   143A      0.942599   144A      0.953076  
     145A      0.978204   146A      0.984853   147A      0.998162  
     148A      1.011170   149A      1.025137   150A      1.031284  
     151A      1.046624   152A      1.052697   153A      1.066503  
     154A      1.072084   155A      1.081935   156A      1.100853  
     157A      1.109230   158A      1.128099   159A      1.134152  
     160A      1.150240   161A      1.159873   162A      1.167346  
     163A      1.175167   164A      1.186013   165A      1.220538  
     166A      1.222840   167A      1.238126   168A      1.269069  
     169A      1.269574   170A      1.294847   171A      1.303390  
     172A      1.311431   173A      1.316214   174A      1.341733  
     175A      1.365802   176A      1.382893   177A      1.401039  
     178A      1.436124   179A      1.445838   180A      1.474706  
     181A      1.494350   182A      1.508146   183A      1.512021  
     184A      1.526136   185A      1.560976   186A      1.590889  
     187A      1.608679   188A      1.637435   189A      1.669494  
     190A      1.677839   191A      1.690027   192A      1.703636  
     193A      1.723957   194A      1.749249   195A      1.764367  
     196A      1.805025   197A      1.875589   198A      1.932406  
     199A      1.943562   200A      1.988139   201A      2.021453  
     202A      2.042088   203A      2.057662   204A      2.088810  
     205A      2.110118   206A      2.135850   207A      2.144708  
     208A      2.169094   209A      2.189999   210A      2.200828  
     211A      2.217686   212A      2.230454   213A      2.234870  
     214A      2.262888   215A      2.275832   216A      2.278758  
     217A      2.290297   218A      2.307637   219A      2.336760  
     220A      2.360646   221A      2.381580   222A      2.389121  
     223A      2.393758   224A      2.395598   225A      2.435199  
     226A      2.444934   227A      2.464942   228A      2.479343  
     229A      2.500889   230A      2.514819   231A      2.531785  
     232A      2.549854   233A      2.570195   234A      2.584820  
     235A      2.632402   236A      2.642959   237A      2.668621  
     238A      2.704138   239A      2.719954   240A      2.733013  
     241A      2.826807   242A      2.828954   243A      2.834707  
     244A      2.870968   245A      2.891086   246A      2.901543  
     247A      2.918563   248A      2.946221   249A      2.999195  
     250A      3.029132   251A      3.055311   252A      3.090928  
     253A      3.092440   254A      3.122703   255A      3.141081  
     256A      3.183060   257A      3.189011   258A      3.222030  
     259A      3.255253   260A      3.290299   261A      3.297914  
     262A      3.356907   263A      3.380219   264A      3.396724  
     265A      3.424666   266A      3.449368   267A      3.488255  
     268A      3.498552   269A      3.520764   270A      3.634676  
     271A      3.668069   272A      3.686295   273A      3.736706  
     274A      3.771234   275A      3.852353   276A      3.889250  
     277A      3.965474   278A      4.036677   279A      4.095892  
     280A      4.209313   281A      4.245210   282A      4.449538  
     283A      4.463032   284A      4.659560   285A      4.709197  
     286A      4.751010   287A      4.811916   288A      4.995973  
     289A      5.077946   290A      5.242558   291A      5.532362  
     292A      5.670129   293A      5.827979   294A      6.107832  
     295A      6.319341   296A      6.709457   297A      6.969032  
     298A     18.112215   299A     18.648924   300A     19.374643  
     301A     25.246717   302A     25.706149  

    Final Occupation by Irrep:
              A 
    DOCC [    18 ]

  @DF-RHF Final Energy:  -224.76243506557353

   => Energetics <=

    Nuclear Repulsion Energy =            166.6286027597696773
    One-Electron Energy =                -633.5084733122637317
    Two-Electron Energy =                 242.1174354869204990
    Total Energy =                       -224.7624350655735270

Computation Completed


Properties will be evaluated at   0.000000,   0.000000,   0.000000 [a0]

Properties computed using the SCF density matrix

  Nuclear Dipole Moment: [e a0]
     X:   998.5027      Y:   544.2815      Z:   449.1707

  Electronic Dipole Moment: [e a0]
     X:  -998.2118      Y:  -543.7175      Z:  -448.4676

  Dipole Moment: [e a0]
     X:     0.2909      Y:     0.5640      Z:     0.7031     Total:     0.9472

  Dipole Moment: [D]
     X:     0.7394      Y:     1.4336      Z:     1.7871     Total:     2.4074


*** tstop() called on ds1 at Mon Oct  4 14:07:04 2021
Module time:
	user time   =      16.64 seconds =       0.28 minutes
	system time =       0.36 seconds =       0.01 minutes
	total time  =          4 seconds =       0.07 minutes
Total time:
	user time   =      56.50 seconds =       0.94 minutes
	system time =       1.31 seconds =       0.02 minutes
	total time  =         12 seconds =       0.20 minutes
  Constructing Basis Sets for SAPT...

   => Loading Basis Set <=

    Name: (AUG-CC-PVDZ AUX)
    Role: RIFIT
    Keyword: DF_BASIS_SAPT
    atoms 1-2, 10-11 entry N          line   158 file /theoryfs2/ds/csargent/miniconda3/envs/cle/share/psi4/basis/aug-cc-pvdz-ri.gbs 
    atoms 3-6, 12-15 entry H          line    30 file /theoryfs2/ds/csargent/miniconda3/envs/cle/share/psi4/basis/aug-cc-pvdz-ri.gbs 
    atoms 7-9, 16-18 entry C          line   112 file /theoryfs2/ds/csargent/miniconda3/envs/cle/share/psi4/basis/aug-cc-pvdz-ri.gbs 


  //>>>>>>>>>>>>>>>>>>>>>>>>>>>>>>>>>>>//
  //               SAPT0               //
  //<<<<<<<<<<<<<<<<<<<<<<<<<<<<<<<<<<<//


*** tstart() called on ds1
*** at Mon Oct  4 14:07:04 2021

        SAPT0  
    Ed Hohenstein
     6 June 2009

      Orbital Information
  --------------------------
    NSO        =       302
    NMO        =       302
    NRI        =       904
    NOCC A     =        18
    NOCC B     =        18
    FOCC A     =         5
    FOCC B     =         5
    NVIR A     =       284
    NVIR B     =       284

    Elst10,r            =    -0.000022818303 [Eh]
    Exch10              =     0.000000000000 [Eh]
    Exch10 (S^2)        =     0.000000000000 [Eh]

    Iter     Energy [mEh]          dE [mEh]         Residual      Time [s]
       1      -0.00009274       0.000092735       0.108651004             0
       2      -0.00008388      -0.000008859       0.024348267             0
       3      -0.00009097       0.000007097       0.009343863             0
       4      -0.00009215       0.000001177       0.002615675             0
       5      -0.00009203      -0.000000122       0.001382523             0
       6      -0.00009191      -0.000000124       0.000455129             1
       7      -0.00009190      -0.000000001       0.000169420             1
       8      -0.00009192       0.000000014       0.000073902             1
       9      -0.00009192       0.000000002       0.000020356             1
      10      -0.00009192      -0.000000002       0.000005281             1
      11      -0.00009192       0.000000000       0.000001677             1
      12      -0.00009192       0.000000000       0.000000366             1

    CHF Iterations converged


    Iter     Energy [mEh]          dE [mEh]         Residual      Time [s]
       1      -0.00005594       0.000055938       0.089064332             0
       2      -0.00005056      -0.000005381       0.020820508             1
       3      -0.00005595       0.000005394       0.009177339             1
       4      -0.00005689       0.000000941       0.002800894             1
       5      -0.00005660      -0.000000289       0.001541542             1
       6      -0.00005655      -0.000000050       0.000529303             1
       7      -0.00005658       0.000000024       0.000205447             1
       8      -0.00005659       0.000000010       0.000062989             1
       9      -0.00005659      -0.000000001       0.000023967             1
      10      -0.00005658      -0.000000002       0.000005623             2
      11      -0.00005658       0.000000000       0.000002411             2
      12      -0.00005658       0.000000000       0.000000881             2

    CHF Iterations converged

    Ind20,r (A<-B)      =    -0.000000091917 [Eh]
    Ind20,r (B<-A)      =    -0.000000056584 [Eh]
    Ind20,r             =    -0.000000148501 [Eh]
    Exch-Ind20,r (A<-B) =     0.000000000000 [Eh]
    Exch-Ind20,r (B<-A) =     0.000000000000 [Eh]
    Exch-Ind20,r        =     0.000000000000 [Eh]
    Disp20              =    -0.000001258671 [Eh]
    Disp20 (SS)         =    -0.000000629336 [Eh]
    Disp20 (OS)         =    -0.000000629336 [Eh]
    Exch-Disp20         =     0.000000000000 [Eh]
    Exch-Disp20 (SS)    =     0.000000000000 [Eh]
    Exch-Disp20 (OS)    =     0.000000000000 [Eh]

    SAPT Results 
  --------------------------------------------------------------------------------------------------------
    Electrostatics                 -0.02281830 [mEh]      -0.01431870 [kcal/mol]      -0.05990945 [kJ/mol]
      Elst10,r                     -0.02281830 [mEh]      -0.01431870 [kcal/mol]      -0.05990945 [kJ/mol]

    Exchange                        0.00000000 [mEh]       0.00000000 [kcal/mol]       0.00000000 [kJ/mol]
      Exch10                        0.00000000 [mEh]       0.00000000 [kcal/mol]       0.00000000 [kJ/mol]
      Exch10(S^2)                   0.00000000 [mEh]       0.00000000 [kcal/mol]       0.00000000 [kJ/mol]

    Induction                      -0.00010238 [mEh]      -0.00006425 [kcal/mol]      -0.00026881 [kJ/mol]
      Ind20,r                      -0.00014850 [mEh]      -0.00009319 [kcal/mol]      -0.00038989 [kJ/mol]
      Exch-Ind20,r                  0.00000000 [mEh]       0.00000000 [kcal/mol]       0.00000000 [kJ/mol]
      delta HF,r (2)                0.00004612 [mEh]       0.00002894 [kcal/mol]       0.00012108 [kJ/mol]

    Dispersion                     -0.00125867 [mEh]      -0.00078983 [kcal/mol]      -0.00330464 [kJ/mol]
      Disp20                       -0.00125867 [mEh]      -0.00078983 [kcal/mol]      -0.00330464 [kJ/mol]
      Exch-Disp20                   0.00000000 [mEh]       0.00000000 [kcal/mol]       0.00000000 [kJ/mol]
      Disp20 (SS)                  -0.00062934 [mEh]      -0.00039491 [kcal/mol]      -0.00165232 [kJ/mol]
      Disp20 (OS)                  -0.00062934 [mEh]      -0.00039491 [kcal/mol]      -0.00165232 [kJ/mol]
      Exch-Disp20 (SS)              0.00000000 [mEh]       0.00000000 [kcal/mol]       0.00000000 [kJ/mol]
      Exch-Disp20 (OS)              0.00000000 [mEh]       0.00000000 [kcal/mol]       0.00000000 [kJ/mol]

  Total HF                         -0.02292069 [mEh]      -0.01438295 [kcal/mol]      -0.06017825 [kJ/mol]
  Total SAPT0                      -0.02417936 [mEh]      -0.01517278 [kcal/mol]      -0.06348289 [kJ/mol]

  Special recipe for scaled SAPT0 (see Manual):
    Electrostatics sSAPT0          -0.02281830 [mEh]      -0.01431870 [kcal/mol]      -0.05990945 [kJ/mol]
    Exchange sSAPT0                 0.00000000 [mEh]       0.00000000 [kcal/mol]       0.00000000 [kJ/mol]
    Induction sSAPT0               -0.00010238 [mEh]      -0.00006425 [kcal/mol]      -0.00026881 [kJ/mol]
    Dispersion sSAPT0              -0.00125867 [mEh]      -0.00078983 [kcal/mol]      -0.00330464 [kJ/mol]
  Total sSAPT0                     -0.02417936 [mEh]      -0.01517278 [kcal/mol]      -0.06348289 [kJ/mol]
  --------------------------------------------------------------------------------------------------------

*** tstop() called on ds1 at Mon Oct  4 14:07:13 2021
Module time:
	user time   =      45.15 seconds =       0.75 minutes
	system time =       4.02 seconds =       0.07 minutes
	total time  =          9 seconds =       0.15 minutes
Total time:
	user time   =     102.62 seconds =       1.71 minutes
	system time =       5.36 seconds =       0.09 minutes
	total time  =         21 seconds =       0.35 minutes


Warning! sapt0 does not have an associated derived wavefunction.The returned wavefunction is the dimer SCF wavefunction.


    Psi4 stopped on: Monday, 04 October 2021 02:07PM
    Psi4 wall time for execution: 0:00:21.90

*** Psi4 exiting successfully. Buy a developer a beer!
