
    -----------------------------------------------------------------------
          Psi4: An Open-Source Ab Initio Electronic Structure Package
                               Psi4 1.4rc3 

                         Git: Rev {HEAD} 080dba6 


    D. G. A. Smith, L. A. Burns, A. C. Simmonett, R. M. Parrish,
    M. C. Schieber, R. Galvelis, P. Kraus, H. Kruse, R. Di Remigio,
    A. Alenaizan, A. M. James, S. Lehtola, J. P. Misiewicz, M. Scheurer,
    R. A. Shaw, J. B. Schriber, Y. Xie, Z. L. Glick, D. A. Sirianni,
    J. S. O'Brien, J. M. Waldrop, A. Kumar, E. G. Hohenstein,
    B. P. Pritchard, B. R. Brooks, H. F. Schaefer III, A. Yu. Sokolov,
    K. Patkowski, A. E. DePrince III, U. Bozkaya, R. A. King,
    F. A. Evangelista, J. M. Turney, T. D. Crawford, C. D. Sherrill,
    J. Chem. Phys. 152(18) 184108 (2020). https://doi.org/10.1063/5.0006002

                            Additional Code Authors
    E. T. Seidl, C. L. Janssen, E. F. Valeev, M. L. Leininger,
    J. F. Gonthier, R. M. Richard, H. R. McAlexander, M. Saitow, X. Wang,
    P. Verma, and M. H. Lechner

             Previous Authors, Complete List of Code Contributors,
                       and Citations for Specific Modules
    https://github.com/psi4/psi4/blob/master/codemeta.json
    https://github.com/psi4/psi4/graphs/contributors
    http://psicode.org/psi4manual/master/introduction.html#citing-psifour

    -----------------------------------------------------------------------


    Psi4 started on: Monday, 04 October 2021 02:30PM

    Process ID: 10622
    Host:       ds1
    PSIDATADIR: /theoryfs2/ds/csargent/miniconda3/envs/cle/share/psi4
    Memory:     500.0 MiB
    Threads:    6
    
  ==> Input File <==

--------------------------------------------------------------------------
# PSI4 file produced by CrystaLattE

# Generated from:               pyrazole.xyz
# Psithon input for N-mer:      2mer-0+140
# Number of atoms per monomer:  [9, 9]
# Number of replicas:           1
# COM priority:                 3.867704009244e-05
# Minimum COM separations:      15.648 
# Separation priority:          6.581390484049e-05
# Minimum monomer separations:  13.107 
# Cutoff priority:              2.657195726067e-06
# Nuclear repulsion energy:     377.0970593505622

memory 7 GB

molecule Dimer_0_140 {
  N            6.27981210      -4.25303372       0.19313865 
  N            6.06870777      -2.28125697       1.80544317 
  H            3.66871156      -5.64628941      -1.96684001 
  H            0.69034521      -2.37545694      -0.42864236 
  H            3.35917442       0.17650601       3.09265017 
  H            7.35266782      -1.99461311       2.90680702 
  C            3.77952586      -1.21508453       1.76858172 
  C            2.38242998      -2.55505538       0.04607681 
  C            4.01771468      -4.38410490      -0.88761863 
--
  N          -20.41714710      -2.29338878      17.65689117 
  N          -20.29828483      -4.33129582      19.19406489 
  H          -17.74398436       0.10752118      16.93886082 
  H          -14.84934780      -2.33501756      19.69399832 
  H          -17.78577187      -6.04806657      21.59863463 
  H          -21.76069305      -5.14127288      19.57983022 
  C          -18.01544843      -4.66147149      20.22311374 
  C          -16.53245600      -2.73179927      19.33319127 
  C          -18.09376133      -1.34663146      17.74149332 
units = au
no_com
no_reorient
}

set {
  e_convergence 10
  d_convergence 10
  scf_type df
  mp2_type df
  cc_type df
  freeze_core true
}

energy('sapt0/aug-cc-pvdz')

--------------------------------------------------------------------------

  Memory set to   6.519 GiB by Python driver.

Scratch directory: /scratch/csargent/psi4.7158.66302/

Scratch directory: /scratch/csargent/psi4.7158.66302/

  //>>>>>>>>>>>>>>>>>>>>>>>>>>>>>>>>>>>//
  //              Dimer HF             //
  //<<<<<<<<<<<<<<<<<<<<<<<<<<<<<<<<<<<//


*** tstart() called on ds1
*** at Mon Oct  4 14:30:10 2021

   => Loading Basis Set <=

    Name: AUG-CC-PVDZ
    Role: ORBITAL
    Keyword: BASIS
    atoms 1-2, 10-11 entry N          line   218 file /theoryfs2/ds/csargent/miniconda3/envs/cle/share/psi4/basis/aug-cc-pvdz.gbs 
    atoms 3-6, 12-15 entry H          line    40 file /theoryfs2/ds/csargent/miniconda3/envs/cle/share/psi4/basis/aug-cc-pvdz.gbs 
    atoms 7-9, 16-18 entry C          line   182 file /theoryfs2/ds/csargent/miniconda3/envs/cle/share/psi4/basis/aug-cc-pvdz.gbs 


         ---------------------------------------------------------
                                   SCF
               by Justin Turney, Rob Parrish, Andy Simmonett
                          and Daniel G. A. Smith
                              RHF Reference
                        6 Threads,   6675 MiB Core
         ---------------------------------------------------------

  ==> Geometry <==

    Molecular point group: c1
    Full point group: C1

    Geometry (in Bohr), charge = 0, multiplicity = 1:

       Center              X                  Y                   Z               Mass       
    ------------   -----------------  -----------------  -----------------  -----------------
         N            6.279812100000    -4.253033720000     0.193138650000    14.003074004430
         N            6.068707770000    -2.281256970000     1.805443170000    14.003074004430
         H            3.668711560000    -5.646289410000    -1.966840010000     1.007825032230
         H            0.690345210000    -2.375456940000    -0.428642360000     1.007825032230
         H            3.359174420000     0.176506010000     3.092650170000     1.007825032230
         H            7.352667820000    -1.994613110000     2.906807020000     1.007825032230
         C            3.779525860000    -1.215084530000     1.768581720000    12.000000000000
         C            2.382429980000    -2.555055380000     0.046076810000    12.000000000000
         C            4.017714680000    -4.384104900000    -0.887618630000    12.000000000000
         N          -20.417147100000    -2.293388780000    17.656891170000    14.003074004430
         N          -20.298284830000    -4.331295820000    19.194064890000    14.003074004430
         H          -17.743984360000     0.107521180000    16.938860820000     1.007825032230
         H          -14.849347800000    -2.335017560000    19.693998320000     1.007825032230
         H          -17.785771870000    -6.048066570000    21.598634630000     1.007825032230
         H          -21.760693050000    -5.141272880000    19.579830220000     1.007825032230
         C          -18.015448430000    -4.661471490000    20.223113740000    12.000000000000
         C          -16.532456000000    -2.731799270000    19.333191270000    12.000000000000
         C          -18.093761330000    -1.346631460000    17.741493320000    12.000000000000

  Running in c1 symmetry.

  Rotational constants: A =      0.02768  B =      0.00122  C =      0.00118 [cm^-1]
  Rotational constants: A =    829.89984  B =     36.43798  C =     35.25763 [MHz]
  Nuclear repulsion =  377.097059301432864

  Charge       = 0
  Multiplicity = 1
  Electrons    = 72
  Nalpha       = 36
  Nbeta        = 36

  ==> Algorithm <==

  SCF Algorithm Type is DF.
  DIIS enabled.
  MOM disabled.
  Fractional occupation disabled.
  Guess Type is SAD.
  Energy threshold   = 1.00e-10
  Density threshold  = 1.00e-10
  Integral threshold = 1.00e-12

  ==> Primary Basis <==

  Basis Set: AUG-CC-PVDZ
    Blend: AUG-CC-PVDZ
    Number of shells: 130
    Number of basis functions: 302
    Number of Cartesian functions: 322
    Spherical Harmonics?: true
    Max angular momentum: 2

   => Loading Basis Set <=

    Name: (AUG-CC-PVDZ AUX)
    Role: JKFIT
    Keyword: DF_BASIS_SCF
    atoms 1-2, 10-11 entry N          line   212 file /theoryfs2/ds/csargent/miniconda3/envs/cle/share/psi4/basis/aug-cc-pvdz-jkfit.gbs 
    atoms 3-6, 12-15 entry H          line    70 file /theoryfs2/ds/csargent/miniconda3/envs/cle/share/psi4/basis/aug-cc-pvdz-jkfit.gbs 
    atoms 7-9, 16-18 entry C          line   154 file /theoryfs2/ds/csargent/miniconda3/envs/cle/share/psi4/basis/aug-cc-pvdz-jkfit.gbs 

  ==> Integral Setup <==

  ==> DiskDFJK: Density-Fitted J/K Matrices <==

    J tasked:                  Yes
    K tasked:                  Yes
    wK tasked:                  No
    OpenMP threads:              6
    Integrals threads:           6
    Memory [MiB]:             5006
    Algorithm:                Core
    Integral Cache:           SAVE
    Schwarz Cutoff:          1E-12
    Fitting Condition:       1E-10

   => Auxiliary Basis Set <=

  Basis Set: (AUG-CC-PVDZ AUX)
    Blend: AUG-CC-PVDZ-JKFIT
    Number of shells: 376
    Number of basis functions: 1116
    Number of Cartesian functions: 1290
    Spherical Harmonics?: true
    Max angular momentum: 3

  Minimum eigenvalue in the overlap matrix is 3.0324010608E-05.
  Reciprocal condition number of the overlap matrix is 2.4866811421E-06.
    Using symmetric orthogonalization.

  ==> Pre-Iterations <==

  SCF Guess: Superposition of Atomic Densities via on-the-fly atomic UHF (no occupation information).

   -------------------------
    Irrep   Nso     Nmo    
   -------------------------
     A        302     302 
   -------------------------
    Total     302     302
   -------------------------

  ==> Iterations <==

                           Total Energy        Delta E     RMS |[F,P]|

   @DF-RHF iter SAD:  -449.44445655931906   -4.49444e+02   0.00000e+00 
   @DF-RHF iter   1:  -449.27109578354828    1.73361e-01   2.12801e-03 DIIS
   @DF-RHF iter   2:  -449.47981109475273   -2.08715e-01   9.73477e-04 DIIS
   @DF-RHF iter   3:  -449.52161338597045   -4.18023e-02   2.10070e-04 DIIS
   @DF-RHF iter   4:  -449.52438027472817   -2.76689e-03   8.55250e-05 DIIS
   @DF-RHF iter   5:  -449.52473627649789   -3.56002e-04   1.69609e-05 DIIS
   @DF-RHF iter   6:  -449.52477016421790   -3.38877e-05   7.02458e-06 DIIS
   @DF-RHF iter   7:  -449.52477806354727   -7.89933e-06   3.10432e-06 DIIS
   @DF-RHF iter   8:  -449.52477958864114   -1.52509e-06   1.43793e-06 DIIS
   @DF-RHF iter   9:  -449.52477992513428   -3.36493e-07   4.00922e-07 DIIS
   @DF-RHF iter  10:  -449.52477994283356   -1.76993e-08   1.20765e-07 DIIS
   @DF-RHF iter  11:  -449.52477994421201   -1.37845e-09   2.82523e-08 DIIS
   @DF-RHF iter  12:  -449.52477994430404   -9.20295e-11   8.22443e-09 DIIS
   @DF-RHF iter  13:  -449.52477994431280   -8.75389e-12   4.01403e-09 DIIS
   @DF-RHF iter  14:  -449.52477994431484   -2.04636e-12   1.38774e-09 DIIS
   @DF-RHF iter  15:  -449.52477994431553   -6.82121e-13   5.89861e-10 DIIS
   @DF-RHF iter  16:  -449.52477994431462    9.09495e-13   1.79240e-10 DIIS
   @DF-RHF iter  17:  -449.52477994431558   -9.66338e-13   6.48450e-11 DIIS
  Energy and wave function converged.


  ==> Post-Iterations <==

    Orbital Energies [Eh]
    ---------------------

    Doubly Occupied:                                                      

       1A    -15.636847     2A    -15.636030     3A    -15.592920  
       4A    -15.592117     5A    -11.280522     6A    -11.279684  
       7A    -11.238409     8A    -11.237579     9A    -11.210531  
      10A    -11.209663    11A     -1.387618    12A     -1.386728  
      13A     -1.122517    14A     -1.121707    15A     -1.067559  
      16A     -1.066685    17A     -0.873397    18A     -0.872564  
      19A     -0.837684    20A     -0.836847    21A     -0.757889  
      22A     -0.757082    23A     -0.646384    24A     -0.645539  
      25A     -0.621476    26A     -0.620614    27A     -0.609792  
      28A     -0.608946    29A     -0.584537    30A     -0.583708  
      31A     -0.462037    32A     -0.461214    33A     -0.371352  
      34A     -0.370519    35A     -0.346680    36A     -0.345838  

    Virtual:                                                              

      37A      0.030284    38A      0.030916    39A      0.041475  
      40A      0.042722    41A      0.048542    42A      0.049383  
      43A      0.062805    44A      0.063798    45A      0.100471  
      46A      0.101177    47A      0.103388    48A      0.104223  
      49A      0.116449    50A      0.117405    51A      0.125672  
      52A      0.126461    53A      0.132374    54A      0.133333  
      55A      0.137683    56A      0.138711    57A      0.140759  
      58A      0.141777    59A      0.155999    60A      0.157313  
      61A      0.163933    62A      0.164909    63A      0.170471  
      64A      0.171260    65A      0.177707    66A      0.178653  
      67A      0.195509    68A      0.196197    69A      0.204223  
      70A      0.204958    71A      0.205567    72A      0.206320  
      73A      0.239599    74A      0.240459    75A      0.243021  
      76A      0.243818    77A      0.244324    78A      0.245163  
      79A      0.270504    80A      0.271308    81A      0.278484  
      82A      0.279298    83A      0.300328    84A      0.301211  
      85A      0.324534    86A      0.325356    87A      0.351741  
      88A      0.352558    89A      0.354666    90A      0.355612  
      91A      0.374287    92A      0.375124    93A      0.395428  
      94A      0.396291    95A      0.402123    96A      0.402948  
      97A      0.414294    98A      0.415334    99A      0.431510  
     100A      0.432337   101A      0.442717   102A      0.443572  
     103A      0.452792   104A      0.453583   105A      0.459160  
     106A      0.460024   107A      0.478052   108A      0.478855  
     109A      0.497881   110A      0.498762   111A      0.508032  
     112A      0.508902   113A      0.521331   114A      0.522144  
     115A      0.540902   116A      0.541797   117A      0.573814  
     118A      0.574632   119A      0.585696   120A      0.586533  
     121A      0.589904   122A      0.590765   123A      0.601819  
     124A      0.602625   125A      0.620326   126A      0.621174  
     127A      0.645463   128A      0.646332   129A      0.654633  
     130A      0.655548   131A      0.675519   132A      0.676382  
     133A      0.697382   134A      0.698261   135A      0.699744  
     136A      0.700608   137A      0.721013   138A      0.721867  
     139A      0.724491   140A      0.725345   141A      0.747079  
     142A      0.747917   143A      0.757990   144A      0.758815  
     145A      0.772652   146A      0.773537   147A      0.780869  
     148A      0.781672   149A      0.827865   150A      0.828699  
     151A      0.837612   152A      0.838440   153A      0.847700  
     154A      0.848652   155A      0.880741   156A      0.881624  
     157A      0.888133   158A      0.888991   159A      0.906305  
     160A      0.907161   161A      0.924183   162A      0.925014  
     163A      0.941970   164A      0.942790   165A      0.977547  
     166A      0.978440   167A      0.984214   168A      0.985060  
     169A      1.010541   170A      1.011332   171A      1.046016  
     172A      1.046784   173A      1.065867   174A      1.066724  
     175A      1.100249   176A      1.101040   177A      1.127450  
     178A      1.128282   179A      1.133525   180A      1.134404  
     181A      1.149603   182A      1.150454   183A      1.174512  
     184A      1.175386   185A      1.219906   186A      1.220744  
     187A      1.268940   188A      1.269773   189A      1.302762  
     190A      1.303538   191A      1.310809   192A      1.311591  
     193A      1.365169   194A      1.366012   195A      1.400385  
     196A      1.401268   197A      1.474096   198A      1.474878  
     199A      1.511407   200A      1.512221   201A      1.525495  
     202A      1.526344   203A      1.560331   204A      1.561200  
     205A      1.590254   206A      1.591105   207A      1.608033  
     208A      1.608888   209A      1.636765   210A      1.637686  
     211A      1.668846   212A      1.669699   213A      1.703011  
     214A      1.703840   215A      1.723330   216A      1.724154  
     217A      1.748605   218A      1.749425   219A      1.763738  
     220A      1.764584   221A      1.804388   222A      1.805252  
     223A      1.874964   224A      1.875847   225A      1.931771  
     226A      1.932597   227A      1.942909   228A      1.943791  
     229A      1.987481   230A      1.988288   231A      2.020816  
     232A      2.021654   233A      2.057024   234A      2.057826  
     235A      2.088189   236A      2.089046   237A      2.144078  
     238A      2.144893   239A      2.189367   240A      2.190222  
     241A      2.200180   242A      2.201045   243A      2.229829  
     244A      2.230661   245A      2.275168   246A      2.276049  
     247A      2.307011   248A      2.307846   249A      2.360000  
     250A      2.360928   251A      2.388495   252A      2.389332  
     253A      2.393171   254A      2.394000   255A      2.434588  
     256A      2.435433   257A      2.464344   258A      2.465148  
     259A      2.531156   260A      2.532006   261A      2.569562  
     262A      2.570436   263A      2.584217   264A      2.584904  
     265A      2.642339   266A      2.643162   267A      2.732400  
     268A      2.733233   269A      2.826170   270A      2.827041  
     271A      2.834072   272A      2.834956   273A      2.900926  
     274A      2.901779   275A      2.917955   276A      2.918789  
     277A      2.998564   278A      2.999369   279A      3.054693  
     280A      3.055523   281A      3.091816   282A      3.092552  
     283A      3.122075   284A      3.122937   285A      3.188365  
     286A      3.189139   287A      3.221390   288A      3.222222  
     289A      3.297276   290A      3.298064   291A      3.379585  
     292A      3.380458   293A      3.520141   294A      3.520925  
     295A      3.685648   296A      3.686778   297A      3.888633  
     298A      3.889520   299A      4.208682   300A      4.209627  
     301A      4.462385   302A      4.463458  

    Final Occupation by Irrep:
              A 
    DOCC [    36 ]

  @DF-RHF Final Energy:  -449.52477994431558

   => Energetics <=

    Nuclear Repulsion Energy =            377.0970593014328642
    One-Electron Energy =               -1354.6812501267868356
    Two-Electron Energy =                 528.0594108810383887
    Total Energy =                       -449.5247799443155827

Computation Completed


Properties will be evaluated at   0.000000,   0.000000,   0.000000 [a0]

Properties computed using the SCF density matrix

  Nuclear Dipole Moment: [e a0]
     X:  -510.4093      Y:  -216.7344      Z:   702.7111

  Electronic Dipole Moment: [e a0]
     X:   510.2945      Y:   216.8008      Z:  -701.4282

  Dipole Moment: [e a0]
     X:    -0.1148      Y:     0.0664      Z:     1.2829     Total:     1.2897

  Dipole Moment: [D]
     X:    -0.2918      Y:     0.1688      Z:     3.2608     Total:     3.2782


*** tstop() called on ds1 at Mon Oct  4 14:30:15 2021
Module time:
	user time   =      23.43 seconds =       0.39 minutes
	system time =       0.57 seconds =       0.01 minutes
	total time  =          5 seconds =       0.08 minutes
Total time:
	user time   =      23.43 seconds =       0.39 minutes
	system time =       0.57 seconds =       0.01 minutes
	total time  =          5 seconds =       0.08 minutes

  //>>>>>>>>>>>>>>>>>>>>>>>>>>>>>>>>>>>//
  //            Monomer A HF           //
  //<<<<<<<<<<<<<<<<<<<<<<<<<<<<<<<<<<<//


*** tstart() called on ds1
*** at Mon Oct  4 14:30:15 2021

   => Loading Basis Set <=

    Name: AUG-CC-PVDZ
    Role: ORBITAL
    Keyword: BASIS
    atoms 1-2, 10-11 entry N          line   218 file /theoryfs2/ds/csargent/miniconda3/envs/cle/share/psi4/basis/aug-cc-pvdz.gbs 
    atoms 3-6, 12-15 entry H          line    40 file /theoryfs2/ds/csargent/miniconda3/envs/cle/share/psi4/basis/aug-cc-pvdz.gbs 
    atoms 7-9, 16-18 entry C          line   182 file /theoryfs2/ds/csargent/miniconda3/envs/cle/share/psi4/basis/aug-cc-pvdz.gbs 


         ---------------------------------------------------------
                                   SCF
               by Justin Turney, Rob Parrish, Andy Simmonett
                          and Daniel G. A. Smith
                              RHF Reference
                        6 Threads,   6675 MiB Core
         ---------------------------------------------------------

  ==> Geometry <==

    Molecular point group: c1
    Full point group: C1

    Geometry (in Bohr), charge = 0, multiplicity = 1:

       Center              X                  Y                   Z               Mass       
    ------------   -----------------  -----------------  -----------------  -----------------
         N            6.279812100000    -4.253033720000     0.193138650000    14.003074004430
         N            6.068707770000    -2.281256970000     1.805443170000    14.003074004430
         H            3.668711560000    -5.646289410000    -1.966840010000     1.007825032230
         H            0.690345210000    -2.375456940000    -0.428642360000     1.007825032230
         H            3.359174420000     0.176506010000     3.092650170000     1.007825032230
         H            7.352667820000    -1.994613110000     2.906807020000     1.007825032230
         C            3.779525860000    -1.215084530000     1.768581720000    12.000000000000
         C            2.382429980000    -2.555055380000     0.046076810000    12.000000000000
         C            4.017714680000    -4.384104900000    -0.887618630000    12.000000000000
      Gh(N)         -20.417147100000    -2.293388780000    17.656891170000    14.003074004430
      Gh(N)         -20.298284830000    -4.331295820000    19.194064890000    14.003074004430
      Gh(H)         -17.743984360000     0.107521180000    16.938860820000     1.007825032230
      Gh(H)         -14.849347800000    -2.335017560000    19.693998320000     1.007825032230
      Gh(H)         -17.785771870000    -6.048066570000    21.598634630000     1.007825032230
      Gh(H)         -21.760693050000    -5.141272880000    19.579830220000     1.007825032230
      Gh(C)         -18.015448430000    -4.661471490000    20.223113740000    12.000000000000
      Gh(C)         -16.532456000000    -2.731799270000    19.333191270000    12.000000000000
      Gh(C)         -18.093761330000    -1.346631460000    17.741493320000    12.000000000000

  Running in c1 symmetry.

  Rotational constants: A =      0.02768  B =      0.00122  C =      0.00118 [cm^-1]
  Rotational constants: A =    829.89984  B =     36.43798  C =     35.25763 [MHz]
  Nuclear repulsion =  166.624056450327203

  Charge       = 0
  Multiplicity = 1
  Electrons    = 36
  Nalpha       = 18
  Nbeta        = 18

  ==> Algorithm <==

  SCF Algorithm Type is DF.
  DIIS enabled.
  MOM disabled.
  Fractional occupation disabled.
  Guess Type is SAD.
  Energy threshold   = 1.00e-10
  Density threshold  = 1.00e-10
  Integral threshold = 1.00e-12

  ==> Primary Basis <==

  Basis Set: AUG-CC-PVDZ
    Blend: AUG-CC-PVDZ
    Number of shells: 130
    Number of basis functions: 302
    Number of Cartesian functions: 322
    Spherical Harmonics?: true
    Max angular momentum: 2

   => Loading Basis Set <=

    Name: (AUG-CC-PVDZ AUX)
    Role: JKFIT
    Keyword: DF_BASIS_SCF
    atoms 1-2, 10-11 entry N          line   212 file /theoryfs2/ds/csargent/miniconda3/envs/cle/share/psi4/basis/aug-cc-pvdz-jkfit.gbs 
    atoms 3-6, 12-15 entry H          line    70 file /theoryfs2/ds/csargent/miniconda3/envs/cle/share/psi4/basis/aug-cc-pvdz-jkfit.gbs 
    atoms 7-9, 16-18 entry C          line   154 file /theoryfs2/ds/csargent/miniconda3/envs/cle/share/psi4/basis/aug-cc-pvdz-jkfit.gbs 

  ==> Integral Setup <==

  ==> DiskDFJK: Density-Fitted J/K Matrices <==

    J tasked:                  Yes
    K tasked:                  Yes
    wK tasked:                  No
    OpenMP threads:              6
    Integrals threads:           6
    Memory [MiB]:             5006
    Algorithm:                Core
    Integral Cache:           LOAD
    Schwarz Cutoff:          1E-12
    Fitting Condition:       1E-10

   => Auxiliary Basis Set <=

  Basis Set: (AUG-CC-PVDZ AUX)
    Blend: AUG-CC-PVDZ-JKFIT
    Number of shells: 376
    Number of basis functions: 1116
    Number of Cartesian functions: 1290
    Spherical Harmonics?: true
    Max angular momentum: 3

  Minimum eigenvalue in the overlap matrix is 3.0324010608E-05.
  Reciprocal condition number of the overlap matrix is 2.4866811421E-06.
    Using symmetric orthogonalization.

  ==> Pre-Iterations <==

  SCF Guess: Superposition of Atomic Densities via on-the-fly atomic UHF (no occupation information).

   -------------------------
    Irrep   Nso     Nmo    
   -------------------------
     A        302     302 
   -------------------------
    Total     302     302
   -------------------------

  ==> Iterations <==

                           Total Energy        Delta E     RMS |[F,P]|

   @DF-RHF iter SAD:  -224.72194801374809   -2.24722e+02   0.00000e+00 
   @DF-RHF iter   1:  -224.63549169973570    8.64563e-02   1.50472e-03 DIIS
   @DF-RHF iter   2:  -224.73984613265714   -1.04354e-01   6.88462e-04 DIIS
   @DF-RHF iter   3:  -224.76075487188467   -2.09087e-02   1.48626e-04 DIIS
   @DF-RHF iter   4:  -224.76213931562546   -1.38444e-03   6.05310e-05 DIIS
   @DF-RHF iter   5:  -224.76231767037766   -1.78355e-04   1.19893e-05 DIIS
   @DF-RHF iter   6:  -224.76233462785086   -1.69575e-05   4.96772e-06 DIIS
   @DF-RHF iter   7:  -224.76233858388863   -3.95604e-06   2.18806e-06 DIIS
   @DF-RHF iter   8:  -224.76233934463099   -7.60742e-07   1.01700e-06 DIIS
   @DF-RHF iter   9:  -224.76233951227280   -1.67642e-07   2.83302e-07 DIIS
   @DF-RHF iter  10:  -224.76233952109351   -8.82071e-09   8.55547e-08 DIIS
   @DF-RHF iter  11:  -224.76233952178345   -6.89937e-10   1.99714e-08 DIIS
   @DF-RHF iter  12:  -224.76233952182952   -4.60716e-11   5.81092e-09 DIIS
   @DF-RHF iter  13:  -224.76233952183350   -3.97904e-12   2.83097e-09 DIIS
   @DF-RHF iter  14:  -224.76233952183472   -1.22213e-12   9.75192e-10 DIIS
   @DF-RHF iter  15:  -224.76233952183463    8.52651e-14   4.15548e-10 DIIS
   @DF-RHF iter  16:  -224.76233952183463    0.00000e+00   1.25998e-10 DIIS
   @DF-RHF iter  17:  -224.76233952183463    0.00000e+00   4.47781e-11 DIIS
  Energy and wave function converged.


  ==> Post-Iterations <==

    Orbital Energies [Eh]
    ---------------------

    Doubly Occupied:                                                      

       1A    -15.636223     2A    -15.592313     3A    -11.279894  
       4A    -11.237784     5A    -11.209891     6A     -1.386922  
       7A     -1.121901     8A     -1.066898     9A     -0.872768  
      10A     -0.837061    11A     -0.757292    12A     -0.645746  
      13A     -0.620834    14A     -0.609140    15A     -0.583920  
      16A     -0.461404    17A     -0.370721    18A     -0.346048  

    Virtual:                                                              

      19A      0.022054    20A      0.030753    21A      0.039366  
      22A      0.042367    23A      0.043505    24A      0.049167  
      25A      0.063508    26A      0.065277    27A      0.083384  
      28A      0.090094    29A      0.098368    30A      0.100998  
      31A      0.104029    32A      0.117176    33A      0.117681  
      34A      0.125121    35A      0.126275    36A      0.127646  
      37A      0.132738    38A      0.132990    39A      0.133587  
      40A      0.138409    41A      0.141507    42A      0.156893  
      43A      0.157820    44A      0.164586    45A      0.165357  
      46A      0.171075    47A      0.178407    48A      0.178602  
      49A      0.194963    50A      0.196050    51A      0.200980  
      52A      0.204793    53A      0.206162    54A      0.222409  
      55A      0.224537    56A      0.227626    57A      0.234991  
      58A      0.240238    59A      0.243627    60A      0.244965  
      61A      0.263452    62A      0.270489    63A      0.271129  
      64A      0.279090    65A      0.301010    66A      0.321314  
      67A      0.325153    68A      0.339520    69A      0.352358  
      70A      0.355360    71A      0.365981    72A      0.372264  
      73A      0.374908    74A      0.383107    75A      0.396071  
      76A      0.402741    77A      0.414999    78A      0.426902  
      79A      0.431454    80A      0.432146    81A      0.440520  
      82A      0.441710    83A      0.443385    84A      0.453393  
      85A      0.455449    86A      0.456810    87A      0.459815  
      88A      0.461316    89A      0.478656    90A      0.498543  
      91A      0.508690    92A      0.509183    93A      0.518874  
      94A      0.521922    95A      0.532603    96A      0.537407  
      97A      0.541563    98A      0.558711    99A      0.568340  
     100A      0.571231   101A      0.574433   102A      0.586318  
     103A      0.590538   104A      0.594549   105A      0.602413  
     106A      0.612738   107A      0.620683   108A      0.620953  
     109A      0.632950   110A      0.646110   111A      0.655298  
     112A      0.676162   113A      0.690245   114A      0.698041  
     115A      0.700391   116A      0.707228   117A      0.718854  
     118A      0.721667   119A      0.725116   120A      0.735080  
     121A      0.744742   122A      0.747709   123A      0.758593  
     124A      0.773318   125A      0.781481   126A      0.789101  
     127A      0.797587   128A      0.813844   129A      0.820337  
     130A      0.828504   131A      0.838230   132A      0.848394  
     133A      0.851346   134A      0.854547   135A      0.870397  
     136A      0.880490   137A      0.881396   138A      0.888767  
     139A      0.895100   140A      0.906950   141A      0.915614  
     142A      0.924815   143A      0.942583   144A      0.951550  
     145A      0.978222   146A      0.984850   147A      0.996639  
     148A      1.011149   149A      1.023610   150A      1.029726  
     151A      1.046606   152A      1.051149   153A      1.066504  
     154A      1.070560   155A      1.080400   156A      1.100852  
     157A      1.107708   158A      1.128061   159A      1.134198  
     160A      1.150236   161A      1.158334   162A      1.165798  
     163A      1.175168   164A      1.184471   165A      1.220548  
     166A      1.221314   167A      1.236604   168A      1.267510  
     169A      1.269558   170A      1.293315   171A      1.303342  
     172A      1.311399   173A      1.314687   174A      1.340201  
     175A      1.365807   176A      1.381355   177A      1.401044  
     178A      1.434587   179A      1.444320   180A      1.474691  
     181A      1.492791   182A      1.506630   183A      1.512027  
     184A      1.526129   185A      1.560990   186A      1.590883  
     187A      1.608669   188A      1.637439   189A      1.669473  
     190A      1.676303   191A      1.688476   192A      1.703635  
     193A      1.723950   194A      1.749216   195A      1.764374  
     196A      1.805048   197A      1.875633   198A      1.932391  
     199A      1.943558   200A      1.988067   201A      2.021445  
     202A      2.040558   203A      2.057611   204A      2.088839  
     205A      2.108624   206A      2.134285   207A      2.144688  
     208A      2.167582   209A      2.190005   210A      2.200827  
     211A      2.216140   212A      2.230458   213A      2.233348  
     214A      2.261374   215A      2.275825   216A      2.277196  
     217A      2.288771   218A      2.307640   219A      2.335178  
     220A      2.360716   221A      2.380069   222A      2.389130  
     223A      2.393822   224A      2.394078   225A      2.435246  
     226A      2.443399   227A      2.464967   228A      2.477794  
     229A      2.499413   230A      2.513293   231A      2.531798  
     232A      2.548332   233A      2.570232   234A      2.584716  
     235A      2.630860   236A      2.642961   237A      2.667099  
     238A      2.702614   239A      2.718428   240A      2.733029  
     241A      2.826837   242A      2.827457   243A      2.834751  
     244A      2.869433   245A      2.889561   246A      2.901587  
     247A      2.918598   248A      2.944628   249A      2.999157  
     250A      3.027522   251A      3.055324   252A      3.089318  
     253A      3.092360   254A      3.122732   255A      3.139565  
     256A      3.181434   257A      3.188932   258A      3.222008  
     259A      3.253738   260A      3.288694   261A      3.297865  
     262A      3.355264   263A      3.380236   264A      3.395217  
     265A      3.423034   266A      3.447749   267A      3.486773  
     268A      3.497078   269A      3.520728   270A      3.633200  
     271A      3.666543   272A      3.686563   273A      3.735179  
     274A      3.769743   275A      3.850790   276A      3.889328  
     277A      3.964093   278A      4.035267   279A      4.094371  
     280A      4.209430   281A      4.243666   282A      4.447832  
     283A      4.463235   284A      4.658087   285A      4.707783  
     286A      4.749500   287A      4.810435   288A      4.994434  
     289A      5.076324   290A      5.240836   291A      5.531068  
     292A      5.668667   293A      5.826269   294A      6.106629  
     295A      6.317684   296A      6.707111   297A      6.967113  
     298A     18.110687   299A     18.647605   300A     19.373236  
     301A     25.245067   302A     25.704985  

    Final Occupation by Irrep:
              A 
    DOCC [    18 ]

  @DF-RHF Final Energy:  -224.76233952183463

   => Energetics <=

    Nuclear Repulsion Energy =            166.6240564503272026
    One-Electron Energy =                -633.4992734023036292
    Two-Electron Energy =                 242.1128774301417934
    Total Energy =                       -224.7623395218346332

Computation Completed


Properties will be evaluated at   0.000000,   0.000000,   0.000000 [a0]

Properties computed using the SCF density matrix

  Nuclear Dipole Moment: [e a0]
     X:   162.5886      Y:  -104.5054      Z:    23.1563

  Electronic Dipole Moment: [e a0]
     X:  -162.9913      Y:   105.1370      Z:   -22.5767

  Dipole Moment: [e a0]
     X:    -0.4027      Y:     0.6317      Z:     0.5796     Total:     0.9472

  Dipole Moment: [D]
     X:    -1.0235      Y:     1.6055      Z:     1.4733     Total:     2.4075


*** tstop() called on ds1 at Mon Oct  4 14:30:19 2021
Module time:
	user time   =      16.74 seconds =       0.28 minutes
	system time =       0.33 seconds =       0.01 minutes
	total time  =          4 seconds =       0.07 minutes
Total time:
	user time   =      40.31 seconds =       0.67 minutes
	system time =       0.90 seconds =       0.02 minutes
	total time  =          9 seconds =       0.15 minutes

  //>>>>>>>>>>>>>>>>>>>>>>>>>>>>>>>>>>>//
  //            Monomer B HF           //
  //<<<<<<<<<<<<<<<<<<<<<<<<<<<<<<<<<<<//


*** tstart() called on ds1
*** at Mon Oct  4 14:30:19 2021

   => Loading Basis Set <=

    Name: AUG-CC-PVDZ
    Role: ORBITAL
    Keyword: BASIS
    atoms 1-2, 10-11 entry N          line   218 file /theoryfs2/ds/csargent/miniconda3/envs/cle/share/psi4/basis/aug-cc-pvdz.gbs 
    atoms 3-6, 12-15 entry H          line    40 file /theoryfs2/ds/csargent/miniconda3/envs/cle/share/psi4/basis/aug-cc-pvdz.gbs 
    atoms 7-9, 16-18 entry C          line   182 file /theoryfs2/ds/csargent/miniconda3/envs/cle/share/psi4/basis/aug-cc-pvdz.gbs 


         ---------------------------------------------------------
                                   SCF
               by Justin Turney, Rob Parrish, Andy Simmonett
                          and Daniel G. A. Smith
                              RHF Reference
                        6 Threads,   6675 MiB Core
         ---------------------------------------------------------

  ==> Geometry <==

    Molecular point group: c1
    Full point group: C1

    Geometry (in Bohr), charge = 0, multiplicity = 1:

       Center              X                  Y                   Z               Mass       
    ------------   -----------------  -----------------  -----------------  -----------------
      Gh(N)           6.279812100000    -4.253033720000     0.193138650000    14.003074004430
      Gh(N)           6.068707770000    -2.281256970000     1.805443170000    14.003074004430
      Gh(H)           3.668711560000    -5.646289410000    -1.966840010000     1.007825032230
      Gh(H)           0.690345210000    -2.375456940000    -0.428642360000     1.007825032230
      Gh(H)           3.359174420000     0.176506010000     3.092650170000     1.007825032230
      Gh(H)           7.352667820000    -1.994613110000     2.906807020000     1.007825032230
      Gh(C)           3.779525860000    -1.215084530000     1.768581720000    12.000000000000
      Gh(C)           2.382429980000    -2.555055380000     0.046076810000    12.000000000000
      Gh(C)           4.017714680000    -4.384104900000    -0.887618630000    12.000000000000
         N          -20.417147100000    -2.293388780000    17.656891170000    14.003074004430
         N          -20.298284830000    -4.331295820000    19.194064890000    14.003074004430
         H          -17.743984360000     0.107521180000    16.938860820000     1.007825032230
         H          -14.849347800000    -2.335017560000    19.693998320000     1.007825032230
         H          -17.785771870000    -6.048066570000    21.598634630000     1.007825032230
         H          -21.760693050000    -5.141272880000    19.579830220000     1.007825032230
         C          -18.015448430000    -4.661471490000    20.223113740000    12.000000000000
         C          -16.532456000000    -2.731799270000    19.333191270000    12.000000000000
         C          -18.093761330000    -1.346631460000    17.741493320000    12.000000000000

  Running in c1 symmetry.

  Rotational constants: A =      0.02768  B =      0.00122  C =      0.00118 [cm^-1]
  Rotational constants: A =    829.89984  B =     36.43798  C =     35.25763 [MHz]
  Nuclear repulsion =  166.628602764785825

  Charge       = 0
  Multiplicity = 1
  Electrons    = 36
  Nalpha       = 18
  Nbeta        = 18

  ==> Algorithm <==

  SCF Algorithm Type is DF.
  DIIS enabled.
  MOM disabled.
  Fractional occupation disabled.
  Guess Type is SAD.
  Energy threshold   = 1.00e-10
  Density threshold  = 1.00e-10
  Integral threshold = 1.00e-12

  ==> Primary Basis <==

  Basis Set: AUG-CC-PVDZ
    Blend: AUG-CC-PVDZ
    Number of shells: 130
    Number of basis functions: 302
    Number of Cartesian functions: 322
    Spherical Harmonics?: true
    Max angular momentum: 2

   => Loading Basis Set <=

    Name: (AUG-CC-PVDZ AUX)
    Role: JKFIT
    Keyword: DF_BASIS_SCF
    atoms 1-2, 10-11 entry N          line   212 file /theoryfs2/ds/csargent/miniconda3/envs/cle/share/psi4/basis/aug-cc-pvdz-jkfit.gbs 
    atoms 3-6, 12-15 entry H          line    70 file /theoryfs2/ds/csargent/miniconda3/envs/cle/share/psi4/basis/aug-cc-pvdz-jkfit.gbs 
    atoms 7-9, 16-18 entry C          line   154 file /theoryfs2/ds/csargent/miniconda3/envs/cle/share/psi4/basis/aug-cc-pvdz-jkfit.gbs 

  ==> Integral Setup <==

  ==> DiskDFJK: Density-Fitted J/K Matrices <==

    J tasked:                  Yes
    K tasked:                  Yes
    wK tasked:                  No
    OpenMP threads:              6
    Integrals threads:           6
    Memory [MiB]:             5006
    Algorithm:                Core
    Integral Cache:           LOAD
    Schwarz Cutoff:          1E-12
    Fitting Condition:       1E-10

   => Auxiliary Basis Set <=

  Basis Set: (AUG-CC-PVDZ AUX)
    Blend: AUG-CC-PVDZ-JKFIT
    Number of shells: 376
    Number of basis functions: 1116
    Number of Cartesian functions: 1290
    Spherical Harmonics?: true
    Max angular momentum: 3

  Minimum eigenvalue in the overlap matrix is 3.0324010608E-05.
  Reciprocal condition number of the overlap matrix is 2.4866811421E-06.
    Using symmetric orthogonalization.

  ==> Pre-Iterations <==

  SCF Guess: Superposition of Atomic Densities via on-the-fly atomic UHF (no occupation information).

   -------------------------
    Irrep   Nso     Nmo    
   -------------------------
     A        302     302 
   -------------------------
    Total     302     302
   -------------------------

  ==> Iterations <==

                           Total Energy        Delta E     RMS |[F,P]|

   @DF-RHF iter SAD:  -224.72250854450863   -2.24723e+02   0.00000e+00 
   @DF-RHF iter   1:  -224.63556596342900    8.69426e-02   1.50490e-03 DIIS
   @DF-RHF iter   2:  -224.73993305201736   -1.04367e-01   6.88620e-04 DIIS
   @DF-RHF iter   3:  -224.76085080594413   -2.09178e-02   1.48614e-04 DIIS
   @DF-RHF iter   4:  -224.76223500459159   -1.38420e-03   6.05151e-05 DIIS
   @DF-RHF iter   5:  -224.76241324908744   -1.78244e-04   1.19848e-05 DIIS
   @DF-RHF iter   6:  -224.76243018223315   -1.69331e-05   4.96323e-06 DIIS
   @DF-RHF iter   7:  -224.76243413007495   -3.94784e-06   2.18627e-06 DIIS
   @DF-RHF iter   8:  -224.76243488961339   -7.59538e-07   1.01631e-06 DIIS
   @DF-RHF iter   9:  -224.76243505711815   -1.67505e-07   2.83280e-07 DIIS
   @DF-RHF iter  10:  -224.76243506593568   -8.81752e-09   8.55270e-08 DIIS
   @DF-RHF iter  11:  -224.76243506662530   -6.89624e-10   1.99678e-08 DIIS
   @DF-RHF iter  12:  -224.76243506667174   -4.64411e-11   5.80973e-09 DIIS
   @DF-RHF iter  13:  -224.76243506667601   -4.26326e-12   2.83582e-09 DIIS
   @DF-RHF iter  14:  -224.76243506667660   -5.96856e-13   9.79832e-10 DIIS
   @DF-RHF iter  15:  -224.76243506667711   -5.11591e-13   4.16537e-10 DIIS
   @DF-RHF iter  16:  -224.76243506667697    1.42109e-13   1.25808e-10 DIIS
   @DF-RHF iter  17:  -224.76243506667680    1.70530e-13   4.47605e-11 DIIS
  Energy and wave function converged.


  ==> Post-Iterations <==

    Orbital Energies [Eh]
    ---------------------

    Doubly Occupied:                                                      

       1A    -15.636233     2A    -15.592291     3A    -11.279903  
       4A    -11.237759     5A    -11.209884     6A     -1.387001  
       7A     -1.121894     8A     -1.066928     9A     -0.872759  
      10A     -0.837039    11A     -0.757272    12A     -0.645745  
      13A     -0.620828    14A     -0.609177    15A     -0.583905  
      16A     -0.461413    17A     -0.370715    18A     -0.346055  

    Virtual:                                                              

      19A      0.022927    20A      0.030764    21A      0.040188  
      22A      0.042359    23A      0.044514    24A      0.049159  
      25A      0.063506    26A      0.066155    27A      0.084206  
      28A      0.090960    29A      0.099200    30A      0.101004  
      31A      0.104029    32A      0.117184    33A      0.118597  
      34A      0.126111    35A      0.126275    36A      0.128543  
      37A      0.133060    38A      0.133652    39A      0.134422  
      40A      0.138400    41A      0.141489    42A      0.156882  
      43A      0.158876    44A      0.164622    45A      0.166229  
      46A      0.171081    47A      0.178390    48A      0.179482  
      49A      0.195689    50A      0.196041    51A      0.201676  
      52A      0.204806    53A      0.206166    54A      0.223125  
      55A      0.225398    56A      0.228497    57A      0.235795  
      58A      0.240240    59A      0.243628    60A      0.244966  
      61A      0.264316    62A      0.271139    63A      0.271224  
      64A      0.279087    65A      0.301025    66A      0.322152  
      67A      0.325139    68A      0.340357    69A      0.352355  
      70A      0.355362    71A      0.366773    72A      0.373179  
      73A      0.374910    74A      0.384003    75A      0.396063  
      76A      0.402744    77A      0.415020    78A      0.427744  
      79A      0.432130    80A      0.432323    81A      0.441502  
      82A      0.442644    83A      0.443400    84A      0.453414  
      85A      0.456239    86A      0.457691    87A      0.459816  
      88A      0.462121    89A      0.478656    90A      0.498544  
      91A      0.508693    92A      0.509976    93A      0.519645  
      94A      0.521956    95A      0.533353    96A      0.538335  
      97A      0.541574    98A      0.559602    99A      0.569028  
     100A      0.572135   101A      0.574429   102A      0.586322  
     103A      0.590548   104A      0.595451   105A      0.602432  
     106A      0.613671   107A      0.620974   108A      0.621504  
     109A      0.633793   110A      0.646112   111A      0.655304  
     112A      0.676169   113A      0.691103   114A      0.698039  
     115A      0.700384   116A      0.708058   117A      0.719737  
     118A      0.721650   119A      0.725123   120A      0.735961  
     121A      0.745659   122A      0.747717   123A      0.758644  
     124A      0.773300   125A      0.781476   126A      0.789954  
     127A      0.798364   128A      0.814739   129A      0.821213  
     130A      0.828513   131A      0.838239   132A      0.848383  
     133A      0.852258   134A      0.855382   135A      0.871329  
     136A      0.881364   137A      0.881407   138A      0.888764  
     139A      0.895967   140A      0.906950   141A      0.916422  
     142A      0.924803   143A      0.942599   144A      0.952360  
     145A      0.978204   146A      0.984853   147A      0.997465  
     148A      1.011170   149A      1.024490   150A      1.030512  
     151A      1.046623   152A      1.051935   153A      1.066503  
     154A      1.071485   155A      1.081345   156A      1.100854  
     157A      1.108480   158A      1.128100   159A      1.134153  
     160A      1.150240   161A      1.159093   162A      1.166610  
     163A      1.175168   164A      1.185322   165A      1.220539  
     166A      1.222002   167A      1.237353   168A      1.268317  
     169A      1.269574   170A      1.294027   171A      1.303391  
     172A      1.311431   173A      1.315491   174A      1.341032  
     175A      1.365804   176A      1.382183   177A      1.401040  
     178A      1.435310   179A      1.445045   180A      1.474706  
     181A      1.493561   182A      1.507346   183A      1.512021  
     184A      1.526137   185A      1.560976   186A      1.590890  
     187A      1.608679   188A      1.637437   189A      1.669494  
     190A      1.677044   191A      1.689216   192A      1.703636  
     193A      1.723957   194A      1.749249   195A      1.764367  
     196A      1.805026   197A      1.875589   198A      1.932406  
     199A      1.943562   200A      1.988140   201A      2.021455  
     202A      2.041488   203A      2.057662   204A      2.088810  
     205A      2.109471   206A      2.135240   207A      2.144709  
     208A      2.168573   209A      2.189999   210A      2.200829  
     211A      2.217040   212A      2.230454   213A      2.234282  
     214A      2.262271   215A      2.275832   216A      2.278163  
     217A      2.289672   218A      2.307637   219A      2.336096  
     220A      2.360646   221A      2.380978   222A      2.389121  
     223A      2.393759   224A      2.394937   225A      2.435199  
     226A      2.444286   227A      2.464942   228A      2.478739  
     229A      2.500339   230A      2.513929   231A      2.531789  
     232A      2.549246   233A      2.570195   234A      2.584821  
     235A      2.631725   236A      2.642959   237A      2.667896  
     238A      2.703381   239A      2.719280   240A      2.733013  
     241A      2.826807   242A      2.828310   243A      2.834708  
     244A      2.870151   245A      2.890430   246A      2.901543  
     247A      2.918563   248A      2.945533   249A      2.999196  
     250A      3.028457   251A      3.055311   252A      3.090205  
     253A      3.092440   254A      3.122703   255A      3.140442  
     256A      3.182353   257A      3.189012   258A      3.222030  
     259A      3.254504   260A      3.289549   261A      3.297914  
     262A      3.356116   263A      3.380221   264A      3.395956  
     265A      3.423829   266A      3.448682   267A      3.487546  
     268A      3.497925   269A      3.520765   270A      3.633913  
     271A      3.667315   272A      3.686295   273A      3.736004  
     274A      3.770425   275A      3.851489   276A      3.889250  
     277A      3.964800   278A      4.035843   279A      4.095117  
     280A      4.209313   281A      4.244456   282A      4.448801  
     283A      4.463035   284A      4.658762   285A      4.708389  
     286A      4.750337   287A      4.811149   288A      4.995247  
     289A      5.077165   290A      5.241833   291A      5.531614  
     292A      5.669297   293A      5.827219   294A      6.107063  
     295A      6.318775   296A      6.708789   297A      6.968221  
     298A     18.111619   299A     18.648270   300A     19.374021  
     301A     25.245890   302A     25.705285  

    Final Occupation by Irrep:
              A 
    DOCC [    18 ]

  @DF-RHF Final Energy:  -224.76243506667680

   => Energetics <=

    Nuclear Repulsion Energy =            166.6286027647858248
    One-Electron Energy =                -633.5084733652882960
    Two-Electron Energy =                 242.1174355338256987
    Total Energy =                       -224.7624350666768009

Computation Completed


Properties will be evaluated at   0.000000,   0.000000,   0.000000 [a0]

Properties computed using the SCF density matrix

  Nuclear Dipole Moment: [e a0]
     X:  -672.9978      Y:  -112.2290      Z:   679.5548

  Electronic Dipole Moment: [e a0]
     X:   673.2887      Y:   111.6650      Z:  -678.8517

  Dipole Moment: [e a0]
     X:     0.2909      Y:    -0.5640      Z:     0.7031     Total:     0.9472

  Dipole Moment: [D]
     X:     0.7394      Y:    -1.4336      Z:     1.7871     Total:     2.4074


*** tstop() called on ds1 at Mon Oct  4 14:30:22 2021
Module time:
	user time   =      16.84 seconds =       0.28 minutes
	system time =       0.35 seconds =       0.01 minutes
	total time  =          3 seconds =       0.05 minutes
Total time:
	user time   =      57.31 seconds =       0.96 minutes
	system time =       1.26 seconds =       0.02 minutes
	total time  =         12 seconds =       0.20 minutes
  Constructing Basis Sets for SAPT...

   => Loading Basis Set <=

    Name: (AUG-CC-PVDZ AUX)
    Role: RIFIT
    Keyword: DF_BASIS_SAPT
    atoms 1-2, 10-11 entry N          line   158 file /theoryfs2/ds/csargent/miniconda3/envs/cle/share/psi4/basis/aug-cc-pvdz-ri.gbs 
    atoms 3-6, 12-15 entry H          line    30 file /theoryfs2/ds/csargent/miniconda3/envs/cle/share/psi4/basis/aug-cc-pvdz-ri.gbs 
    atoms 7-9, 16-18 entry C          line   112 file /theoryfs2/ds/csargent/miniconda3/envs/cle/share/psi4/basis/aug-cc-pvdz-ri.gbs 


  //>>>>>>>>>>>>>>>>>>>>>>>>>>>>>>>>>>>//
  //               SAPT0               //
  //<<<<<<<<<<<<<<<<<<<<<<<<<<<<<<<<<<<//


*** tstart() called on ds1
*** at Mon Oct  4 14:30:22 2021

        SAPT0  
    Ed Hohenstein
     6 June 2009

      Orbital Information
  --------------------------
    NSO        =       302
    NMO        =       302
    NRI        =       904
    NOCC A     =        18
    NOCC B     =        18
    FOCC A     =         5
    FOCC B     =         5
    NVIR A     =       284
    NVIR B     =       284

    Elst10,r            =    -0.000005378944 [Eh]
    Exch10              =     0.000000000007 [Eh]
    Exch10 (S^2)        =     0.000000000007 [Eh]

    Iter     Energy [mEh]          dE [mEh]         Residual      Time [s]
       1      -0.00002637       0.000026365       0.058477463             1
       2      -0.00002417      -0.000002198       0.013579001             1
       3      -0.00002665       0.000002483       0.004239521             1
       4      -0.00002685       0.000000202       0.001370898             1
       5      -0.00002682      -0.000000038       0.000582429             1
       6      -0.00002679      -0.000000022       0.000195337             1
       7      -0.00002679      -0.000000001       0.000061137             1
       8      -0.00002680       0.000000003       0.000024533             1
       9      -0.00002680       0.000000000       0.000010228             2
      10      -0.00002680      -0.000000001       0.000002358             2
      11      -0.00002680       0.000000000       0.000000904             2

    CHF Iterations converged


    Iter     Energy [mEh]          dE [mEh]         Residual      Time [s]
       1      -0.00005692       0.000056920       0.086321651             0
       2      -0.00005155      -0.000005370       0.018944761             0
       3      -0.00005670       0.000005153       0.006329869             0
       4      -0.00005712       0.000000417       0.002203706             0
       5      -0.00005703      -0.000000090       0.000959228             0
       6      -0.00005698      -0.000000052       0.000371398             1
       7      -0.00005698      -0.000000003       0.000137429             1
       8      -0.00005699       0.000000011       0.000054288             1
       9      -0.00005699      -0.000000000       0.000019258             1
      10      -0.00005699      -0.000000002       0.000004463             1
      11      -0.00005699       0.000000000       0.000001843             1
      12      -0.00005699       0.000000000       0.000000666             1

    CHF Iterations converged

    Ind20,r (A<-B)      =    -0.000000026795 [Eh]
    Ind20,r (B<-A)      =    -0.000000056986 [Eh]
    Ind20,r             =    -0.000000083781 [Eh]
    Exch-Ind20,r (A<-B) =     0.000000000006 [Eh]
    Exch-Ind20,r (B<-A) =     0.000000000005 [Eh]
    Exch-Ind20,r        =     0.000000000010 [Eh]
    Disp20              =    -0.000001819152 [Eh]
    Disp20 (SS)         =    -0.000000909576 [Eh]
    Disp20 (OS)         =    -0.000000909576 [Eh]
    Exch-Disp20         =     0.000000000000 [Eh]
    Exch-Disp20 (SS)    =     0.000000000000 [Eh]
    Exch-Disp20 (OS)    =     0.000000000000 [Eh]

    SAPT Results 
  --------------------------------------------------------------------------------------------------------
    Electrostatics                 -0.00537894 [mEh]      -0.00337534 [kcal/mol]      -0.01412241 [kJ/mol]
      Elst10,r                     -0.00537894 [mEh]      -0.00337534 [kcal/mol]      -0.01412241 [kJ/mol]

    Exchange                        0.00000001 [mEh]       0.00000000 [kcal/mol]       0.00000002 [kJ/mol]
      Exch10                        0.00000001 [mEh]       0.00000000 [kcal/mol]       0.00000002 [kJ/mol]
      Exch10(S^2)                   0.00000001 [mEh]       0.00000000 [kcal/mol]       0.00000002 [kJ/mol]

    Induction                       0.00002313 [mEh]       0.00001452 [kcal/mol]       0.00006073 [kJ/mol]
      Ind20,r                      -0.00008378 [mEh]      -0.00005257 [kcal/mol]      -0.00021997 [kJ/mol]
      Exch-Ind20,r                  0.00000001 [mEh]       0.00000001 [kcal/mol]       0.00000003 [kJ/mol]
      delta HF,r (2)                0.00010690 [mEh]       0.00006708 [kcal/mol]       0.00028067 [kJ/mol]

    Dispersion                     -0.00181915 [mEh]      -0.00114153 [kcal/mol]      -0.00477618 [kJ/mol]
      Disp20                       -0.00181915 [mEh]      -0.00114154 [kcal/mol]      -0.00477618 [kJ/mol]
      Exch-Disp20                   0.00000000 [mEh]       0.00000000 [kcal/mol]       0.00000000 [kJ/mol]
      Disp20 (SS)                  -0.00090958 [mEh]      -0.00057077 [kcal/mol]      -0.00238809 [kJ/mol]
      Disp20 (OS)                  -0.00090958 [mEh]      -0.00057077 [kcal/mol]      -0.00238809 [kJ/mol]
      Exch-Disp20 (SS)              0.00000000 [mEh]       0.00000000 [kcal/mol]       0.00000000 [kJ/mol]
      Exch-Disp20 (OS)              0.00000000 [mEh]       0.00000000 [kcal/mol]       0.00000000 [kJ/mol]

  Total HF                         -0.00535580 [mEh]      -0.00336082 [kcal/mol]      -0.01406166 [kJ/mol]
  Total SAPT0                      -0.00717496 [mEh]      -0.00450235 [kcal/mol]      -0.01883784 [kJ/mol]

  Special recipe for scaled SAPT0 (see Manual):
    Electrostatics sSAPT0          -0.00537894 [mEh]      -0.00337534 [kcal/mol]      -0.01412241 [kJ/mol]
    Exchange sSAPT0                 0.00000001 [mEh]       0.00000000 [kcal/mol]       0.00000002 [kJ/mol]
    Induction sSAPT0                0.00002313 [mEh]       0.00001452 [kcal/mol]       0.00006073 [kJ/mol]
    Dispersion sSAPT0              -0.00181915 [mEh]      -0.00114153 [kcal/mol]      -0.00477618 [kJ/mol]
  Total sSAPT0                     -0.00717496 [mEh]      -0.00450235 [kcal/mol]      -0.01883784 [kJ/mol]
  --------------------------------------------------------------------------------------------------------

*** tstop() called on ds1 at Mon Oct  4 14:30:32 2021
Module time:
	user time   =      44.46 seconds =       0.74 minutes
	system time =       3.91 seconds =       0.07 minutes
	total time  =         10 seconds =       0.17 minutes
Total time:
	user time   =     102.70 seconds =       1.71 minutes
	system time =       5.20 seconds =       0.09 minutes
	total time  =         22 seconds =       0.37 minutes


Warning! sapt0 does not have an associated derived wavefunction.The returned wavefunction is the dimer SCF wavefunction.


    Psi4 stopped on: Monday, 04 October 2021 02:30PM
    Psi4 wall time for execution: 0:00:21.93

*** Psi4 exiting successfully. Buy a developer a beer!
