
    -----------------------------------------------------------------------
          Psi4: An Open-Source Ab Initio Electronic Structure Package
                               Psi4 1.4rc3 

                         Git: Rev {HEAD} 080dba6 


    D. G. A. Smith, L. A. Burns, A. C. Simmonett, R. M. Parrish,
    M. C. Schieber, R. Galvelis, P. Kraus, H. Kruse, R. Di Remigio,
    A. Alenaizan, A. M. James, S. Lehtola, J. P. Misiewicz, M. Scheurer,
    R. A. Shaw, J. B. Schriber, Y. Xie, Z. L. Glick, D. A. Sirianni,
    J. S. O'Brien, J. M. Waldrop, A. Kumar, E. G. Hohenstein,
    B. P. Pritchard, B. R. Brooks, H. F. Schaefer III, A. Yu. Sokolov,
    K. Patkowski, A. E. DePrince III, U. Bozkaya, R. A. King,
    F. A. Evangelista, J. M. Turney, T. D. Crawford, C. D. Sherrill,
    J. Chem. Phys. 152(18) 184108 (2020). https://doi.org/10.1063/5.0006002

                            Additional Code Authors
    E. T. Seidl, C. L. Janssen, E. F. Valeev, M. L. Leininger,
    J. F. Gonthier, R. M. Richard, H. R. McAlexander, M. Saitow, X. Wang,
    P. Verma, and M. H. Lechner

             Previous Authors, Complete List of Code Contributors,
                       and Citations for Specific Modules
    https://github.com/psi4/psi4/blob/master/codemeta.json
    https://github.com/psi4/psi4/graphs/contributors
    http://psicode.org/psi4manual/master/introduction.html#citing-psifour

    -----------------------------------------------------------------------


    Psi4 started on: Monday, 04 October 2021 03:18PM

    Process ID: 12582
    Host:       ds1
    PSIDATADIR: /theoryfs2/ds/csargent/miniconda3/envs/cle/share/psi4
    Memory:     500.0 MiB
    Threads:    6
    
  ==> Input File <==

--------------------------------------------------------------------------
# PSI4 file produced by CrystaLattE

# Generated from:               pyrazole.xyz
# Psithon input for N-mer:      2mer-0+12
# Number of atoms per monomer:  [9, 9]
# Number of replicas:           1
# COM priority:                 1.765448734310e-04
# Minimum COM separations:      9.433 
# Separation priority:          7.337448839207e-04
# Minimum monomer separations:  5.867 
# Cutoff priority:              6.618000284545e-05
# Nuclear repulsion energy:     406.85935977046535

memory 7 GB

molecule Dimer_0_12 {
  N            6.27981210      -4.25303372       0.19313865 
  N            6.06870777      -2.28125697       1.80544317 
  H            3.66871156      -5.64628941      -1.96684001 
  H            0.69034521      -2.37545694      -0.42864236 
  H            3.35917442       0.17650601       3.09265017 
  H            7.35266782      -1.99461311       2.90680702 
  C            3.77952586      -1.21508453       1.76858172 
  C            2.38242998      -2.55505538       0.04607681 
  C            4.01771468      -4.38410490      -0.88761863 
--
  N          -12.67871861       2.40090997       7.98741574 
  N          -12.55985635       4.43881700       6.45024202 
  H          -10.00555588       0.00000000       8.70544609 
  H           -7.11091932       2.44253874       5.95030859 
  H          -10.04734339       6.15558776       4.04567228 
  H          -14.02226457       5.24879406       6.06447669 
  C          -10.27701995       4.76899267       5.42119317 
  C           -8.79402751       2.83932046       6.31111564 
  C          -10.35533284       1.45415264       7.90281359 
units = au
no_com
no_reorient
}

set {
  e_convergence 10
  d_convergence 10
  scf_type df
  mp2_type df
  cc_type df
  freeze_core true
}

energy('sapt0/aug-cc-pvdz')

--------------------------------------------------------------------------

  Memory set to   6.519 GiB by Python driver.

Scratch directory: /scratch/csargent/psi4.7158.66302/

Scratch directory: /scratch/csargent/psi4.7158.66302/

  //>>>>>>>>>>>>>>>>>>>>>>>>>>>>>>>>>>>//
  //              Dimer HF             //
  //<<<<<<<<<<<<<<<<<<<<<<<<<<<<<<<<<<<//


*** tstart() called on ds1
*** at Mon Oct  4 15:18:40 2021

   => Loading Basis Set <=

    Name: AUG-CC-PVDZ
    Role: ORBITAL
    Keyword: BASIS
    atoms 1-2, 10-11 entry N          line   218 file /theoryfs2/ds/csargent/miniconda3/envs/cle/share/psi4/basis/aug-cc-pvdz.gbs 
    atoms 3-6, 12-15 entry H          line    40 file /theoryfs2/ds/csargent/miniconda3/envs/cle/share/psi4/basis/aug-cc-pvdz.gbs 
    atoms 7-9, 16-18 entry C          line   182 file /theoryfs2/ds/csargent/miniconda3/envs/cle/share/psi4/basis/aug-cc-pvdz.gbs 


         ---------------------------------------------------------
                                   SCF
               by Justin Turney, Rob Parrish, Andy Simmonett
                          and Daniel G. A. Smith
                              RHF Reference
                        6 Threads,   6675 MiB Core
         ---------------------------------------------------------

  ==> Geometry <==

    Molecular point group: c1
    Full point group: C1

    Geometry (in Bohr), charge = 0, multiplicity = 1:

       Center              X                  Y                   Z               Mass       
    ------------   -----------------  -----------------  -----------------  -----------------
         N            6.279812100000    -4.253033720000     0.193138650000    14.003074004430
         N            6.068707770000    -2.281256970000     1.805443170000    14.003074004430
         H            3.668711560000    -5.646289410000    -1.966840010000     1.007825032230
         H            0.690345210000    -2.375456940000    -0.428642360000     1.007825032230
         H            3.359174420000     0.176506010000     3.092650170000     1.007825032230
         H            7.352667820000    -1.994613110000     2.906807020000     1.007825032230
         C            3.779525860000    -1.215084530000     1.768581720000    12.000000000000
         C            2.382429980000    -2.555055380000     0.046076810000    12.000000000000
         C            4.017714680000    -4.384104900000    -0.887618630000    12.000000000000
         N          -12.678718610000     2.400909970000     7.987415740000    14.003074004430
         N          -12.559856350000     4.438817000000     6.450242020000    14.003074004430
         H          -10.005555880000     0.000000000000     8.705446090000     1.007825032230
         H           -7.110919320000     2.442538740000     5.950308590000     1.007825032230
         H          -10.047343390000     6.155587760000     4.045672280000     1.007825032230
         H          -14.022264570000     5.248794060000     6.064476690000     1.007825032230
         C          -10.277019950000     4.768992670000     5.421193170000    12.000000000000
         C           -8.794027510000     2.839320460000     6.311115640000    12.000000000000
         C          -10.355332840000     1.454152640000     7.902813590000    12.000000000000

  Running in c1 symmetry.

  Rotational constants: A =      0.05093  B =      0.00435  C =      0.00411 [cm^-1]
  Rotational constants: A =   1526.94881  B =    130.32620  C =    123.34879 [MHz]
  Nuclear repulsion =  406.859359741619528

  Charge       = 0
  Multiplicity = 1
  Electrons    = 72
  Nalpha       = 36
  Nbeta        = 36

  ==> Algorithm <==

  SCF Algorithm Type is DF.
  DIIS enabled.
  MOM disabled.
  Fractional occupation disabled.
  Guess Type is SAD.
  Energy threshold   = 1.00e-10
  Density threshold  = 1.00e-10
  Integral threshold = 1.00e-12

  ==> Primary Basis <==

  Basis Set: AUG-CC-PVDZ
    Blend: AUG-CC-PVDZ
    Number of shells: 130
    Number of basis functions: 302
    Number of Cartesian functions: 322
    Spherical Harmonics?: true
    Max angular momentum: 2

   => Loading Basis Set <=

    Name: (AUG-CC-PVDZ AUX)
    Role: JKFIT
    Keyword: DF_BASIS_SCF
    atoms 1-2, 10-11 entry N          line   212 file /theoryfs2/ds/csargent/miniconda3/envs/cle/share/psi4/basis/aug-cc-pvdz-jkfit.gbs 
    atoms 3-6, 12-15 entry H          line    70 file /theoryfs2/ds/csargent/miniconda3/envs/cle/share/psi4/basis/aug-cc-pvdz-jkfit.gbs 
    atoms 7-9, 16-18 entry C          line   154 file /theoryfs2/ds/csargent/miniconda3/envs/cle/share/psi4/basis/aug-cc-pvdz-jkfit.gbs 

  ==> Integral Setup <==

  ==> DiskDFJK: Density-Fitted J/K Matrices <==

    J tasked:                  Yes
    K tasked:                  Yes
    wK tasked:                  No
    OpenMP threads:              6
    Integrals threads:           6
    Memory [MiB]:             5006
    Algorithm:                Core
    Integral Cache:           SAVE
    Schwarz Cutoff:          1E-12
    Fitting Condition:       1E-10

   => Auxiliary Basis Set <=

  Basis Set: (AUG-CC-PVDZ AUX)
    Blend: AUG-CC-PVDZ-JKFIT
    Number of shells: 376
    Number of basis functions: 1116
    Number of Cartesian functions: 1290
    Spherical Harmonics?: true
    Max angular momentum: 3

  Minimum eigenvalue in the overlap matrix is 2.7721217801E-05.
  Reciprocal condition number of the overlap matrix is 2.2663940765E-06.
    Using symmetric orthogonalization.

  ==> Pre-Iterations <==

  SCF Guess: Superposition of Atomic Densities via on-the-fly atomic UHF (no occupation information).

   -------------------------
    Irrep   Nso     Nmo    
   -------------------------
     A        302     302 
   -------------------------
    Total     302     302
   -------------------------

  ==> Iterations <==

                           Total Energy        Delta E     RMS |[F,P]|

   @DF-RHF iter SAD:  -449.44454524725171   -4.49445e+02   0.00000e+00 
   @DF-RHF iter   1:  -449.27107690185449    1.73468e-01   2.12814e-03 DIIS
   @DF-RHF iter   2:  -449.47976715130289   -2.08690e-01   9.73783e-04 DIIS
   @DF-RHF iter   3:  -449.52158782276035   -4.18207e-02   2.10201e-04 DIIS
   @DF-RHF iter   4:  -449.52435578291215   -2.76796e-03   8.56509e-05 DIIS
   @DF-RHF iter   5:  -449.52471277936849   -3.56996e-04   1.69997e-05 DIIS
   @DF-RHF iter   6:  -449.52474673084220   -3.39515e-05   7.05128e-06 DIIS
   @DF-RHF iter   7:  -449.52475462903743   -7.89820e-06   3.17130e-06 DIIS
   @DF-RHF iter   8:  -449.52475619468873   -1.56565e-06   1.44509e-06 DIIS
   @DF-RHF iter   9:  -449.52475653940223   -3.44713e-07   4.08098e-07 DIIS
   @DF-RHF iter  10:  -449.52475655779568   -1.83935e-08   1.20582e-07 DIIS
   @DF-RHF iter  11:  -449.52475655919778   -1.40210e-09   2.84343e-08 DIIS
   @DF-RHF iter  12:  -449.52475655929214   -9.43601e-11   8.34041e-09 DIIS
   @DF-RHF iter  13:  -449.52475655930084   -8.69704e-12   4.10522e-09 DIIS
   @DF-RHF iter  14:  -449.52475655930255   -1.70530e-12   1.43132e-09 DIIS
   @DF-RHF iter  15:  -449.52475655930334   -7.95808e-13   6.52343e-10 DIIS
   @DF-RHF iter  16:  -449.52475655930380   -4.54747e-13   2.88058e-10 DIIS
   @DF-RHF iter  17:  -449.52475655930328    5.11591e-13   8.96083e-11 DIIS
  Energy and wave function converged.


  ==> Post-Iterations <==

    Orbital Energies [Eh]
    ---------------------

    Doubly Occupied:                                                      

       1A    -15.638203     2A    -15.637320     3A    -15.594245  
       4A    -15.593405     5A    -11.282007     6A    -11.281110  
       7A    -11.239758     8A    -11.238839     9A    -11.212114  
      10A    -11.211118    11A     -1.388966    12A     -1.388015  
      13A     -1.123849    14A     -1.122979    15A     -1.069051  
      16A     -1.068086    17A     -0.874786    18A     -0.873855  
      19A     -0.839134    20A     -0.838198    21A     -0.759378  
      22A     -0.758548    23A     -0.647813    24A     -0.646855  
      25A     -0.622986    26A     -0.621996    27A     -0.611148  
      28A     -0.610237    29A     -0.585996    30A     -0.585121  
      31A     -0.463331    32A     -0.462460    33A     -0.372714  
      34A     -0.371789    35A     -0.348148    36A     -0.347231  

    Virtual:                                                              

      37A      0.024002    38A      0.032146    39A      0.040076  
      40A      0.044782    41A      0.046465    42A      0.059015  
      43A      0.062458    44A      0.075504    45A      0.094747  
      46A      0.099206    47A      0.104916    48A      0.106916  
      49A      0.114257    50A      0.116243    51A      0.120416  
      52A      0.122839    53A      0.127665    54A      0.132264  
      55A      0.135735    56A      0.139937    57A      0.150106  
      58A      0.157671    59A      0.162519    60A      0.167604  
      61A      0.168606    62A      0.171418    63A      0.173527  
      64A      0.178277    65A      0.181422    66A      0.184497  
      67A      0.194845    68A      0.202410    69A      0.204026  
      70A      0.205300    71A      0.208483    72A      0.216730  
      73A      0.235703    74A      0.239731    75A      0.244430  
      76A      0.248835    77A      0.254606    78A      0.263006  
      79A      0.272560    80A      0.274238    81A      0.278743  
      82A      0.292076    83A      0.301367    84A      0.306622  
      85A      0.327932    86A      0.333650    87A      0.349653  
      88A      0.354271    89A      0.355301    90A      0.362825  
      91A      0.373486    92A      0.375531    93A      0.396278  
      94A      0.399796    95A      0.401263    96A      0.404297  
      97A      0.412812    98A      0.428294    99A      0.431201  
     100A      0.437574   101A      0.442660   102A      0.445135  
     103A      0.451887   104A      0.453580   105A      0.458946  
     106A      0.460051   107A      0.481240   108A      0.485548  
     109A      0.496840   110A      0.498319   111A      0.506222  
     112A      0.510562   113A      0.520727   114A      0.524479  
     115A      0.542440   116A      0.553953   117A      0.572859  
     118A      0.577369   119A      0.585281   120A      0.586706  
     121A      0.590566   122A      0.597505   123A      0.601772  
     124A      0.603120   125A      0.619274   126A      0.624678  
     127A      0.644390   128A      0.649304   129A      0.655119  
     130A      0.664060   131A      0.677043   132A      0.677628  
     133A      0.695752   134A      0.698888   135A      0.700052  
     136A      0.702819   137A      0.721072   138A      0.722976  
     139A      0.725933   140A      0.729240   141A      0.746249  
     142A      0.747928   143A      0.757302   144A      0.758158  
     145A      0.771453   146A      0.780011   147A      0.788019  
     148A      0.794857   149A      0.827545   150A      0.831737  
     151A      0.835595   152A      0.841087   153A      0.847555  
     154A      0.850214   155A      0.880689   156A      0.884721  
     157A      0.886608   158A      0.889693   159A      0.904744  
     160A      0.908037   161A      0.923655   162A      0.926389  
     163A      0.940628   164A      0.942092   165A      0.977034  
     166A      0.979631   167A      0.983734   168A      0.986277  
     169A      1.009813   170A      1.011168   171A      1.045945  
     172A      1.046562   173A      1.066177   174A      1.067261  
     175A      1.099219   176A      1.101550   177A      1.127781  
     178A      1.129581   179A      1.135353   180A      1.137142  
     181A      1.148830   182A      1.149809   183A      1.174184  
     184A      1.175178   185A      1.218612   186A      1.221494  
     187A      1.267966   188A      1.272291   189A      1.302106  
     190A      1.304692   191A      1.310297   192A      1.314887  
     193A      1.365103   194A      1.369248   195A      1.399863  
     196A      1.403098   197A      1.472889   198A      1.474220  
     199A      1.510357   200A      1.511505   201A      1.524975  
     202A      1.526618   203A      1.559547   204A      1.561749  
     205A      1.587005   206A      1.594682   207A      1.608514  
     208A      1.609591   209A      1.639011   210A      1.644771  
     211A      1.671028   212A      1.671659   213A      1.701915  
     214A      1.710984   215A      1.722186   216A      1.725339  
     217A      1.747313   218A      1.751496   219A      1.762840  
     220A      1.766736   221A      1.803538   222A      1.804852  
     223A      1.873768   224A      1.875016   225A      1.930674  
     226A      1.933014   227A      1.941432   228A      1.948376  
     229A      1.987581   230A      1.990546   231A      2.019611  
     232A      2.022590   233A      2.056401   234A      2.057359  
     235A      2.087159   236A      2.091356   237A      2.143067  
     238A      2.143733   239A      2.188215   240A      2.192195  
     241A      2.198830   242A      2.199968   243A      2.229096  
     244A      2.232857   245A      2.274456   246A      2.275630  
     247A      2.306114   248A      2.308624   249A      2.358736  
     250A      2.359954   251A      2.387360   252A      2.389335  
     253A      2.393157   254A      2.394209   255A      2.433864  
     256A      2.435536   257A      2.463161   258A      2.464043  
     259A      2.533164   260A      2.538194   261A      2.568506  
     262A      2.570004   263A      2.583775   264A      2.584676  
     265A      2.642577   266A      2.643405   267A      2.732095  
     268A      2.732229   269A      2.824901   270A      2.826496  
     271A      2.832790   272A      2.835415   273A      2.899983  
     274A      2.902406   275A      2.916890   276A      2.918025  
     277A      2.997807   278A      2.999816   279A      3.053425  
     280A      3.054703   281A      3.090615   282A      3.092484  
     283A      3.121928   284A      3.130506   285A      3.188495  
     286A      3.191712   287A      3.220168   288A      3.222382  
     289A      3.297039   290A      3.300087   291A      3.378953  
     292A      3.384496   293A      3.519757   294A      3.522172  
     295A      3.684538   296A      3.686534   297A      3.887530  
     298A      3.890944   299A      4.206942   300A      4.212995  
     301A      4.461726   302A      4.464174  

    Final Occupation by Irrep:
              A 
    DOCC [    36 ]

  @DF-RHF Final Energy:  -449.52475655930328

   => Energetics <=

    Nuclear Repulsion Energy =            406.8593597416195280
    One-Electron Energy =               -1414.1066598189283923
    Two-Electron Energy =                 557.7225435180056365
    Total Energy =                       -449.5247565593032277

Computation Completed


Properties will be evaluated at   0.000000,   0.000000,   0.000000 [a0]

Properties computed using the SCF density matrix

  Nuclear Dipole Moment: [e a0]
     X:  -231.8258      Y:    11.5944      Z:   266.7965

  Electronic Dipole Moment: [e a0]
     X:   231.7080      Y:   -10.4043      Z:  -266.9198

  Dipole Moment: [e a0]
     X:    -0.1179      Y:     1.1902      Z:    -0.1232     Total:     1.2023

  Dipole Moment: [D]
     X:    -0.2996      Y:     3.0251      Z:    -0.3132     Total:     3.0560


*** tstop() called on ds1 at Mon Oct  4 15:18:45 2021
Module time:
	user time   =      28.68 seconds =       0.48 minutes
	system time =       0.63 seconds =       0.01 minutes
	total time  =          5 seconds =       0.08 minutes
Total time:
	user time   =      28.68 seconds =       0.48 minutes
	system time =       0.63 seconds =       0.01 minutes
	total time  =          5 seconds =       0.08 minutes

  //>>>>>>>>>>>>>>>>>>>>>>>>>>>>>>>>>>>//
  //            Monomer A HF           //
  //<<<<<<<<<<<<<<<<<<<<<<<<<<<<<<<<<<<//


*** tstart() called on ds1
*** at Mon Oct  4 15:18:45 2021

   => Loading Basis Set <=

    Name: AUG-CC-PVDZ
    Role: ORBITAL
    Keyword: BASIS
    atoms 1-2, 10-11 entry N          line   218 file /theoryfs2/ds/csargent/miniconda3/envs/cle/share/psi4/basis/aug-cc-pvdz.gbs 
    atoms 3-6, 12-15 entry H          line    40 file /theoryfs2/ds/csargent/miniconda3/envs/cle/share/psi4/basis/aug-cc-pvdz.gbs 
    atoms 7-9, 16-18 entry C          line   182 file /theoryfs2/ds/csargent/miniconda3/envs/cle/share/psi4/basis/aug-cc-pvdz.gbs 


         ---------------------------------------------------------
                                   SCF
               by Justin Turney, Rob Parrish, Andy Simmonett
                          and Daniel G. A. Smith
                              RHF Reference
                        6 Threads,   6675 MiB Core
         ---------------------------------------------------------

  ==> Geometry <==

    Molecular point group: c1
    Full point group: C1

    Geometry (in Bohr), charge = 0, multiplicity = 1:

       Center              X                  Y                   Z               Mass       
    ------------   -----------------  -----------------  -----------------  -----------------
         N            6.279812100000    -4.253033720000     0.193138650000    14.003074004430
         N            6.068707770000    -2.281256970000     1.805443170000    14.003074004430
         H            3.668711560000    -5.646289410000    -1.966840010000     1.007825032230
         H            0.690345210000    -2.375456940000    -0.428642360000     1.007825032230
         H            3.359174420000     0.176506010000     3.092650170000     1.007825032230
         H            7.352667820000    -1.994613110000     2.906807020000     1.007825032230
         C            3.779525860000    -1.215084530000     1.768581720000    12.000000000000
         C            2.382429980000    -2.555055380000     0.046076810000    12.000000000000
         C            4.017714680000    -4.384104900000    -0.887618630000    12.000000000000
      Gh(N)         -12.678718610000     2.400909970000     7.987415740000    14.003074004430
      Gh(N)         -12.559856350000     4.438817000000     6.450242020000    14.003074004430
      Gh(H)         -10.005555880000     0.000000000000     8.705446090000     1.007825032230
      Gh(H)          -7.110919320000     2.442538740000     5.950308590000     1.007825032230
      Gh(H)         -10.047343390000     6.155587760000     4.045672280000     1.007825032230
      Gh(H)         -14.022264570000     5.248794060000     6.064476690000     1.007825032230
      Gh(C)         -10.277019950000     4.768992670000     5.421193170000    12.000000000000
      Gh(C)          -8.794027510000     2.839320460000     6.311115640000    12.000000000000
      Gh(C)         -10.355332840000     1.454152640000     7.902813590000    12.000000000000

  Running in c1 symmetry.

  Rotational constants: A =      0.05093  B =      0.00435  C =      0.00411 [cm^-1]
  Rotational constants: A =   1526.94881  B =    130.32620  C =    123.34879 [MHz]
  Nuclear repulsion =  166.624056450327203

  Charge       = 0
  Multiplicity = 1
  Electrons    = 36
  Nalpha       = 18
  Nbeta        = 18

  ==> Algorithm <==

  SCF Algorithm Type is DF.
  DIIS enabled.
  MOM disabled.
  Fractional occupation disabled.
  Guess Type is SAD.
  Energy threshold   = 1.00e-10
  Density threshold  = 1.00e-10
  Integral threshold = 1.00e-12

  ==> Primary Basis <==

  Basis Set: AUG-CC-PVDZ
    Blend: AUG-CC-PVDZ
    Number of shells: 130
    Number of basis functions: 302
    Number of Cartesian functions: 322
    Spherical Harmonics?: true
    Max angular momentum: 2

   => Loading Basis Set <=

    Name: (AUG-CC-PVDZ AUX)
    Role: JKFIT
    Keyword: DF_BASIS_SCF
    atoms 1-2, 10-11 entry N          line   212 file /theoryfs2/ds/csargent/miniconda3/envs/cle/share/psi4/basis/aug-cc-pvdz-jkfit.gbs 
    atoms 3-6, 12-15 entry H          line    70 file /theoryfs2/ds/csargent/miniconda3/envs/cle/share/psi4/basis/aug-cc-pvdz-jkfit.gbs 
    atoms 7-9, 16-18 entry C          line   154 file /theoryfs2/ds/csargent/miniconda3/envs/cle/share/psi4/basis/aug-cc-pvdz-jkfit.gbs 

  ==> Integral Setup <==

  ==> DiskDFJK: Density-Fitted J/K Matrices <==

    J tasked:                  Yes
    K tasked:                  Yes
    wK tasked:                  No
    OpenMP threads:              6
    Integrals threads:           6
    Memory [MiB]:             5006
    Algorithm:                Core
    Integral Cache:           LOAD
    Schwarz Cutoff:          1E-12
    Fitting Condition:       1E-10

   => Auxiliary Basis Set <=

  Basis Set: (AUG-CC-PVDZ AUX)
    Blend: AUG-CC-PVDZ-JKFIT
    Number of shells: 376
    Number of basis functions: 1116
    Number of Cartesian functions: 1290
    Spherical Harmonics?: true
    Max angular momentum: 3

  Minimum eigenvalue in the overlap matrix is 2.7721217801E-05.
  Reciprocal condition number of the overlap matrix is 2.2663940765E-06.
    Using symmetric orthogonalization.

  ==> Pre-Iterations <==

  SCF Guess: Superposition of Atomic Densities via on-the-fly atomic UHF (no occupation information).

   -------------------------
    Irrep   Nso     Nmo    
   -------------------------
     A        302     302 
   -------------------------
    Total     302     302
   -------------------------

  ==> Iterations <==

                           Total Energy        Delta E     RMS |[F,P]|

   @DF-RHF iter SAD:  -224.72194814586939   -2.24722e+02   0.00000e+00 
   @DF-RHF iter   1:  -224.63551262135294    8.64355e-02   1.50481e-03 DIIS
   @DF-RHF iter   2:  -224.73987168563986   -1.04359e-01   6.88511e-04 DIIS
   @DF-RHF iter   3:  -224.76078245999324   -2.09108e-02   1.48631e-04 DIIS
   @DF-RHF iter   4:  -224.76216707607020   -1.38462e-03   6.05345e-05 DIIS
   @DF-RHF iter   5:  -224.76234545530986   -1.78379e-04   1.19907e-05 DIIS
   @DF-RHF iter   6:  -224.76236241620268   -1.69609e-05   4.96821e-06 DIIS
   @DF-RHF iter   7:  -224.76236637296248   -3.95676e-06   2.18850e-06 DIIS
   @DF-RHF iter   8:  -224.76236713397316   -7.61011e-07   1.01710e-06 DIIS
   @DF-RHF iter   9:  -224.76236730166048   -1.67687e-07   2.83337e-07 DIIS
   @DF-RHF iter  10:  -224.76236731048257   -8.82210e-09   8.55495e-08 DIIS
   @DF-RHF iter  11:  -224.76236731117208   -6.89511e-10   1.99754e-08 DIIS
   @DF-RHF iter  12:  -224.76236731121801   -4.59295e-11   5.81356e-09 DIIS
   @DF-RHF iter  13:  -224.76236731122214   -4.12115e-12   2.83285e-09 DIIS
   @DF-RHF iter  14:  -224.76236731122287   -7.38964e-13   9.75967e-10 DIIS
   @DF-RHF iter  15:  -224.76236731122358   -7.10543e-13   4.15828e-10 DIIS
   @DF-RHF iter  16:  -224.76236731122336    2.27374e-13   1.26055e-10 DIIS
   @DF-RHF iter  17:  -224.76236731122285    5.11591e-13   4.47763e-11 DIIS
  Energy and wave function converged.


  ==> Post-Iterations <==

    Orbital Energies [Eh]
    ---------------------

    Doubly Occupied:                                                      

       1A    -15.636226     2A    -15.592317     3A    -11.279893  
       4A    -11.237784     5A    -11.209893     6A     -1.386924  
       7A     -1.121905     8A     -1.066903     9A     -0.872771  
      10A     -0.837064    11A     -0.757297    12A     -0.645751  
      13A     -0.620838    14A     -0.609141    15A     -0.583924  
      16A     -0.461408    17A     -0.370723    18A     -0.346051  

    Virtual:                                                              

      19A      0.018685    20A      0.032074    21A      0.038295  
      22A      0.041231    23A      0.044913    24A      0.059653  
      25A      0.061362    26A      0.071375    27A      0.085701  
      28A      0.087716    29A      0.097952    30A      0.103333  
      31A      0.111587    32A      0.115045    33A      0.117946  
      34A      0.120770    35A      0.123815    36A      0.123991  
      37A      0.129794    38A      0.134392    39A      0.141265  
      40A      0.149138    41A      0.159339    42A      0.161172  
      43A      0.165509    44A      0.169246    45A      0.171721  
      46A      0.177035    47A      0.177829    48A      0.183465  
      49A      0.198008    50A      0.200541    51A      0.205298  
      52A      0.206704    53A      0.208635    54A      0.221600  
      55A      0.224578    56A      0.231072    57A      0.238476  
      58A      0.245022    59A      0.251069    60A      0.256846  
      61A      0.268701    62A      0.276907    63A      0.287813  
      64A      0.294832    65A      0.303263    66A      0.321285  
      67A      0.334267    68A      0.340644    69A      0.354330  
      70A      0.359120    71A      0.367076    72A      0.374133  
      73A      0.376437    74A      0.389558    75A      0.401877  
      76A      0.403811    77A      0.416190    78A      0.428042  
      79A      0.430361    80A      0.433704    81A      0.441110  
      82A      0.444319    83A      0.444944    84A      0.453724  
      85A      0.458052    86A      0.460940    87A      0.465605  
      88A      0.468489    89A      0.486477    90A      0.498898  
      91A      0.507367    92A      0.510256    93A      0.520862  
      94A      0.523979    95A      0.532893    96A      0.538713  
      97A      0.548318    98A      0.557158    99A      0.569480  
     100A      0.575455   101A      0.582879   102A      0.588909  
     103A      0.591616   104A      0.595049   105A      0.603047  
     106A      0.614503   107A      0.621147   108A      0.628959  
     109A      0.631862   110A      0.651047   111A      0.666333  
     112A      0.677564   113A      0.691661   114A      0.699774  
     115A      0.701142   116A      0.707749   117A      0.718237  
     118A      0.724063   119A      0.730848   120A      0.735663  
     121A      0.748831   122A      0.749637   123A      0.759622  
     124A      0.775634   125A      0.787750   126A      0.789477  
     127A      0.800914   128A      0.812452   129A      0.821432  
     130A      0.832291   131A      0.839000   132A      0.849371  
     133A      0.854588   134A      0.855972   135A      0.872053  
     136A      0.880276   137A      0.883812   138A      0.889458  
     139A      0.896299   140A      0.907767   141A      0.919133  
     142A      0.926292   143A      0.943346   144A      0.952470  
     145A      0.980077   146A      0.985742   147A      0.997255  
     148A      1.011960   149A      1.023318   150A      1.030141  
     151A      1.046879   152A      1.052916   153A      1.066505  
     154A      1.070280   155A      1.084417   156A      1.100738  
     157A      1.107860   158A      1.130857   159A      1.136712  
     160A      1.150791   161A      1.159324   162A      1.165780  
     163A      1.176395   164A      1.185770   165A      1.221520  
     166A      1.222189   167A      1.239535   168A      1.269186  
     169A      1.270776   170A      1.292544   171A      1.304894  
     172A      1.311853   173A      1.315561   174A      1.340336  
     175A      1.367665   176A      1.380875   177A      1.402527  
     178A      1.433926   179A      1.443494   180A      1.475207  
     181A      1.492368   182A      1.506031   183A      1.512945  
     184A      1.527570   185A      1.562519   186A      1.594112  
     187A      1.609926   188A      1.643849   189A      1.671952  
     190A      1.675980   191A      1.688242   192A      1.710118  
     193A      1.725880   194A      1.751133   195A      1.766612  
     196A      1.805835   197A      1.876064   198A      1.933753  
     199A      1.943889   200A      1.989854   201A      2.023464  
     202A      2.042146   203A      2.058145   204A      2.092066  
     205A      2.107331   206A      2.133188   207A      2.144804  
     208A      2.175188   209A      2.192061   210A      2.201043  
     211A      2.217950   212A      2.232519   213A      2.233114  
     214A      2.262910   215A      2.276550   216A      2.277257  
     217A      2.290686   218A      2.310176   219A      2.334361  
     220A      2.361074   221A      2.380803   222A      2.390780  
     223A      2.392251   224A      2.399070   225A      2.435833  
     226A      2.444224   227A      2.465107   228A      2.481486  
     229A      2.497660   230A      2.512368   231A      2.536114  
     232A      2.547447   233A      2.571159   234A      2.585649  
     235A      2.630031   236A      2.643864   237A      2.666377  
     238A      2.701954   239A      2.719270   240A      2.733438  
     241A      2.826524   242A      2.827461   243A      2.836538  
     244A      2.870701   245A      2.888834   246A      2.903185  
     247A      2.918994   248A      2.946676   249A      3.000252  
     250A      3.026330   251A      3.055831   252A      3.090636  
     253A      3.093419   254A      3.129455   255A      3.138726  
     256A      3.182159   257A      3.192739   258A      3.223152  
     259A      3.253055   260A      3.288229   261A      3.299813  
     262A      3.354336   263A      3.382502   264A      3.400645  
     265A      3.423272   266A      3.446944   267A      3.486854  
     268A      3.495864   269A      3.522886   270A      3.632698  
     271A      3.666168   272A      3.687617   273A      3.734256  
     274A      3.770658   275A      3.849967   276A      3.891902  
     277A      3.967764   278A      4.034472   279A      4.094040  
     280A      4.211830   281A      4.244098   282A      4.448360  
     283A      4.464206   284A      4.657407   285A      4.707553  
     286A      4.751877   287A      4.809756   288A      4.996487  
     289A      5.077219   290A      5.240606   291A      5.530805  
     292A      5.668603   293A      5.825213   294A      6.105550  
     295A      6.315984   296A      6.705997   297A      6.966432  
     298A     18.109781   299A     18.646706   300A     19.380360  
     301A     25.244113   302A     25.704194  

    Final Occupation by Irrep:
              A 
    DOCC [    18 ]

  @DF-RHF Final Energy:  -224.76236731122285

   => Energetics <=

    Nuclear Repulsion Energy =            166.6240564503272026
    One-Electron Energy =                -633.4992185145998747
    Two-Electron Energy =                 242.1127947530498261
    Total Energy =                       -224.7623673112228460

Computation Completed


Properties will be evaluated at   0.000000,   0.000000,   0.000000 [a0]

Properties computed using the SCF density matrix

  Nuclear Dipole Moment: [e a0]
     X:   162.5886      Y:  -104.5054      Z:    23.1563

  Electronic Dipole Moment: [e a0]
     X:  -162.9915      Y:   105.1371      Z:   -22.5767

  Dipole Moment: [e a0]
     X:    -0.4030      Y:     0.6318      Z:     0.5796     Total:     0.9473

  Dipole Moment: [D]
     X:    -1.0242      Y:     1.6058      Z:     1.4731     Total:     2.4078


*** tstop() called on ds1 at Mon Oct  4 15:18:50 2021
Module time:
	user time   =      20.62 seconds =       0.34 minutes
	system time =       0.36 seconds =       0.01 minutes
	total time  =          5 seconds =       0.08 minutes
Total time:
	user time   =      49.34 seconds =       0.82 minutes
	system time =       0.99 seconds =       0.02 minutes
	total time  =         10 seconds =       0.17 minutes

  //>>>>>>>>>>>>>>>>>>>>>>>>>>>>>>>>>>>//
  //            Monomer B HF           //
  //<<<<<<<<<<<<<<<<<<<<<<<<<<<<<<<<<<<//


*** tstart() called on ds1
*** at Mon Oct  4 15:18:50 2021

   => Loading Basis Set <=

    Name: AUG-CC-PVDZ
    Role: ORBITAL
    Keyword: BASIS
    atoms 1-2, 10-11 entry N          line   218 file /theoryfs2/ds/csargent/miniconda3/envs/cle/share/psi4/basis/aug-cc-pvdz.gbs 
    atoms 3-6, 12-15 entry H          line    40 file /theoryfs2/ds/csargent/miniconda3/envs/cle/share/psi4/basis/aug-cc-pvdz.gbs 
    atoms 7-9, 16-18 entry C          line   182 file /theoryfs2/ds/csargent/miniconda3/envs/cle/share/psi4/basis/aug-cc-pvdz.gbs 


         ---------------------------------------------------------
                                   SCF
               by Justin Turney, Rob Parrish, Andy Simmonett
                          and Daniel G. A. Smith
                              RHF Reference
                        6 Threads,   6675 MiB Core
         ---------------------------------------------------------

  ==> Geometry <==

    Molecular point group: c1
    Full point group: C1

    Geometry (in Bohr), charge = 0, multiplicity = 1:

       Center              X                  Y                   Z               Mass       
    ------------   -----------------  -----------------  -----------------  -----------------
      Gh(N)           6.279812100000    -4.253033720000     0.193138650000    14.003074004430
      Gh(N)           6.068707770000    -2.281256970000     1.805443170000    14.003074004430
      Gh(H)           3.668711560000    -5.646289410000    -1.966840010000     1.007825032230
      Gh(H)           0.690345210000    -2.375456940000    -0.428642360000     1.007825032230
      Gh(H)           3.359174420000     0.176506010000     3.092650170000     1.007825032230
      Gh(H)           7.352667820000    -1.994613110000     2.906807020000     1.007825032230
      Gh(C)           3.779525860000    -1.215084530000     1.768581720000    12.000000000000
      Gh(C)           2.382429980000    -2.555055380000     0.046076810000    12.000000000000
      Gh(C)           4.017714680000    -4.384104900000    -0.887618630000    12.000000000000
         N          -12.678718610000     2.400909970000     7.987415740000    14.003074004430
         N          -12.559856350000     4.438817000000     6.450242020000    14.003074004430
         H          -10.005555880000     0.000000000000     8.705446090000     1.007825032230
         H           -7.110919320000     2.442538740000     5.950308590000     1.007825032230
         H          -10.047343390000     6.155587760000     4.045672280000     1.007825032230
         H          -14.022264570000     5.248794060000     6.064476690000     1.007825032230
         C          -10.277019950000     4.768992670000     5.421193170000    12.000000000000
         C           -8.794027510000     2.839320460000     6.311115640000    12.000000000000
         C          -10.355332840000     1.454152640000     7.902813590000    12.000000000000

  Running in c1 symmetry.

  Rotational constants: A =      0.05093  B =      0.00435  C =      0.00411 [cm^-1]
  Rotational constants: A =   1526.94881  B =    130.32620  C =    123.34879 [MHz]
  Nuclear repulsion =  166.628602788302118

  Charge       = 0
  Multiplicity = 1
  Electrons    = 36
  Nalpha       = 18
  Nbeta        = 18

  ==> Algorithm <==

  SCF Algorithm Type is DF.
  DIIS enabled.
  MOM disabled.
  Fractional occupation disabled.
  Guess Type is SAD.
  Energy threshold   = 1.00e-10
  Density threshold  = 1.00e-10
  Integral threshold = 1.00e-12

  ==> Primary Basis <==

  Basis Set: AUG-CC-PVDZ
    Blend: AUG-CC-PVDZ
    Number of shells: 130
    Number of basis functions: 302
    Number of Cartesian functions: 322
    Spherical Harmonics?: true
    Max angular momentum: 2

   => Loading Basis Set <=

    Name: (AUG-CC-PVDZ AUX)
    Role: JKFIT
    Keyword: DF_BASIS_SCF
    atoms 1-2, 10-11 entry N          line   212 file /theoryfs2/ds/csargent/miniconda3/envs/cle/share/psi4/basis/aug-cc-pvdz-jkfit.gbs 
    atoms 3-6, 12-15 entry H          line    70 file /theoryfs2/ds/csargent/miniconda3/envs/cle/share/psi4/basis/aug-cc-pvdz-jkfit.gbs 
    atoms 7-9, 16-18 entry C          line   154 file /theoryfs2/ds/csargent/miniconda3/envs/cle/share/psi4/basis/aug-cc-pvdz-jkfit.gbs 

  ==> Integral Setup <==

  ==> DiskDFJK: Density-Fitted J/K Matrices <==

    J tasked:                  Yes
    K tasked:                  Yes
    wK tasked:                  No
    OpenMP threads:              6
    Integrals threads:           6
    Memory [MiB]:             5006
    Algorithm:                Core
    Integral Cache:           LOAD
    Schwarz Cutoff:          1E-12
    Fitting Condition:       1E-10

   => Auxiliary Basis Set <=

  Basis Set: (AUG-CC-PVDZ AUX)
    Blend: AUG-CC-PVDZ-JKFIT
    Number of shells: 376
    Number of basis functions: 1116
    Number of Cartesian functions: 1290
    Spherical Harmonics?: true
    Max angular momentum: 3

  Minimum eigenvalue in the overlap matrix is 2.7721217801E-05.
  Reciprocal condition number of the overlap matrix is 2.2663940765E-06.
    Using symmetric orthogonalization.

  ==> Pre-Iterations <==

  SCF Guess: Superposition of Atomic Densities via on-the-fly atomic UHF (no occupation information).

   -------------------------
    Irrep   Nso     Nmo    
   -------------------------
     A        302     302 
   -------------------------
    Total     302     302
   -------------------------

  ==> Iterations <==

                           Total Energy        Delta E     RMS |[F,P]|

   @DF-RHF iter SAD:  -224.72250870701217   -2.24723e+02   0.00000e+00 
   @DF-RHF iter   1:  -224.63558990541799    8.69188e-02   1.50505e-03 DIIS
   @DF-RHF iter   2:  -224.73996166886428   -1.04372e-01   6.88696e-04 DIIS
   @DF-RHF iter   3:  -224.76088310048593   -2.09214e-02   1.48631e-04 DIIS
   @DF-RHF iter   4:  -224.76226772007260   -1.38462e-03   6.05195e-05 DIIS
   @DF-RHF iter   5:  -224.76244601532983   -1.78295e-04   1.19884e-05 DIIS
   @DF-RHF iter   6:  -224.76246295709282   -1.69418e-05   4.96403e-06 DIIS
   @DF-RHF iter   7:  -224.76246690568277   -3.94859e-06   2.18680e-06 DIIS
   @DF-RHF iter   8:  -224.76246766559493   -7.59912e-07   1.01665e-06 DIIS
   @DF-RHF iter   9:  -224.76246783319991   -1.67605e-07   2.83344e-07 DIIS
   @DF-RHF iter  10:  -224.76246784202050   -8.82059e-09   8.55280e-08 DIIS
   @DF-RHF iter  11:  -224.76246784270944   -6.88942e-10   1.99635e-08 DIIS
   @DF-RHF iter  12:  -224.76246784275571   -4.62705e-11   5.80635e-09 DIIS
   @DF-RHF iter  13:  -224.76246784276003   -4.32010e-12   2.83148e-09 DIIS
   @DF-RHF iter  14:  -224.76246784276083   -7.95808e-13   9.76713e-10 DIIS
   @DF-RHF iter  15:  -224.76246784276080    2.84217e-14   4.15805e-10 DIIS
   @DF-RHF iter  16:  -224.76246784276137   -5.68434e-13   1.25851e-10 DIIS
   @DF-RHF iter  17:  -224.76246784276131    5.68434e-14   4.47078e-11 DIIS
  Energy and wave function converged.


  ==> Post-Iterations <==

    Orbital Energies [Eh]
    ---------------------

    Doubly Occupied:                                                      

       1A    -15.636240     2A    -15.592294     3A    -11.279902  
       4A    -11.237757     5A    -11.209877     6A     -1.387005  
       7A     -1.121896     8A     -1.066931     9A     -0.872763  
      10A     -0.837041    11A     -0.757277    12A     -0.645754  
      13A     -0.620831    14A     -0.609181    15A     -0.583909  
      16A     -0.461416    17A     -0.370717    18A     -0.346057  

    Virtual:                                                              

      19A      0.020075    20A      0.030545    21A      0.038573  
      22A      0.041293    23A      0.047459    24A      0.059047  
      25A      0.061974    26A      0.073894    27A      0.085412  
      28A      0.089741    29A      0.098780    30A      0.102232  
      31A      0.109630    32A      0.114524    33A      0.117814  
      34A      0.119113    35A      0.125826    36A      0.126770  
      37A      0.130583    38A      0.135628    39A      0.139526  
      40A      0.144375    41A      0.154034    42A      0.164262  
      43A      0.168017    44A      0.170127    45A      0.176059  
      46A      0.176633    47A      0.182638    48A      0.188473  
      49A      0.195546    50A      0.199826    51A      0.204075  
      52A      0.206817    53A      0.213561    54A      0.225341  
      55A      0.227857    56A      0.231689    57A      0.238008  
      58A      0.245460    59A      0.252950    60A      0.260887  
      61A      0.273816    62A      0.275078    63A      0.277661  
      64A      0.284957    65A      0.307308    66A      0.324023  
      67A      0.331513    68A      0.343351    69A      0.354507  
      70A      0.355091    71A      0.369571    72A      0.375475  
      73A      0.377275    74A      0.384809    75A      0.399055  
      76A      0.403051    77A      0.424850    78A      0.429183  
      79A      0.433718    80A      0.434380    81A      0.441774  
      82A      0.446006    83A      0.448137    84A      0.453913  
      85A      0.456345    86A      0.462019    87A      0.462124  
      88A      0.472374    89A      0.484472    90A      0.498699  
      91A      0.508351    92A      0.511054    93A      0.518981  
      94A      0.524539    95A      0.533072    96A      0.539445  
      97A      0.552354    98A      0.558621    99A      0.570902  
     100A      0.573805   101A      0.579083   102A      0.588488  
     103A      0.595038   104A      0.600420   105A      0.604779  
     106A      0.613508   107A      0.622108   108A      0.629664  
     109A      0.633854   110A      0.650549   111A      0.657549  
     112A      0.678098   113A      0.689890   114A      0.700551  
     115A      0.702210   116A      0.707876   117A      0.719772  
     118A      0.722977   119A      0.729014   120A      0.737834  
     121A      0.748274   122A      0.750550   123A      0.759767  
     124A      0.782161   125A      0.788176   126A      0.790362  
     127A      0.799997   128A      0.814632   129A      0.821920  
     130A      0.829997   131A      0.841452   132A      0.849216  
     133A      0.852870   134A      0.855387   135A      0.870558  
     136A      0.880516   137A      0.887651   138A      0.891600  
     139A      0.900445   140A      0.908228   141A      0.917932  
     142A      0.927312   143A      0.942697   144A      0.952430  
     145A      0.980198   146A      0.985950   147A      0.996783  
     148A      1.011631   149A      1.023655   150A      1.031340  
     151A      1.047614   152A      1.056826   153A      1.068363  
     154A      1.071422   155A      1.083049   156A      1.103167  
     157A      1.108501   158A      1.130101   159A      1.139161  
     160A      1.150455   161A      1.158600   162A      1.167199  
     163A      1.176462   164A      1.185314   165A      1.221087  
     166A      1.222409   167A      1.238978   168A      1.270149  
     169A      1.274513   170A      1.293394   171A      1.305730  
     172A      1.315125   173A      1.316017   174A      1.340569  
     175A      1.370324   176A      1.381388   177A      1.403973  
     178A      1.434454   179A      1.443978   180A      1.474883  
     181A      1.494384   182A      1.506870   183A      1.512352  
     184A      1.527523   185A      1.562238   186A      1.592429  
     187A      1.610610   188A      1.643854   189A      1.672682  
     190A      1.677309   191A      1.691497   192A      1.707038  
     193A      1.724677   194A      1.750563   195A      1.765407  
     196A      1.805536   197A      1.876104   198A      1.933082  
     199A      1.949247   200A      1.990622   201A      2.021750  
     202A      2.040941   203A      2.058760   204A      2.089546  
     205A      2.108380   206A      2.134014   207A      2.145095  
     208A      2.170395   209A      2.191107   210A      2.200937  
     211A      2.216932   212A      2.232103   213A      2.233574  
     214A      2.263317   215A      2.276385   216A      2.278795  
     217A      2.291890   218A      2.308262   219A      2.334981  
     220A      2.360742   221A      2.383086   222A      2.389320  
     223A      2.394757   224A      2.395400   225A      2.436348  
     226A      2.445441   227A      2.465098   228A      2.480746  
     229A      2.499637   230A      2.513591   231A      2.538647  
     232A      2.549315   233A      2.570569   234A      2.585658  
     235A      2.631116   236A      2.645198   237A      2.667909  
     238A      2.704004   239A      2.719694   240A      2.734314  
     241A      2.827077   242A      2.828979   243A      2.834829  
     244A      2.870902   245A      2.890000   246A      2.902194  
     247A      2.918902   248A      2.945455   249A      3.000593  
     250A      3.027467   251A      3.055445   252A      3.090462  
     253A      3.093009   254A      3.125669   255A      3.139481  
     256A      3.182289   257A      3.191784   258A      3.222584  
     259A      3.254634   260A      3.288612   261A      3.300244  
     262A      3.355555   263A      3.384160   264A      3.400489  
     265A      3.426671   266A      3.447847   267A      3.487433  
     268A      3.497723   269A      3.522126   270A      3.633210  
     271A      3.671537   272A      3.686707   273A      3.735523  
     274A      3.771243   275A      3.851099   276A      3.889602  
     277A      3.970269   278A      4.034915   279A      4.098274  
     280A      4.211127   281A      4.244106   282A      4.453378  
     283A      4.465427   284A      4.658063   285A      4.708595  
     286A      4.751414   287A      4.811881   288A      4.994790  
     289A      5.077667   290A      5.241363   291A      5.532573  
     292A      5.669276   293A      5.825935   294A      6.106008  
     295A      6.317353   296A      6.708420   297A      6.967405  
     298A     18.111650   299A     18.648777   300A     19.377353  
     301A     25.245002   302A     25.704832  

    Final Occupation by Irrep:
              A 
    DOCC [    18 ]

  @DF-RHF Final Energy:  -224.76246784276131

   => Energetics <=

    Nuclear Repulsion Energy =            166.6286027883021177
    One-Electron Energy =                -633.5084467854528611
    Two-Electron Energy =                 242.1173761543894045
    Total Energy =                       -224.7624678427613105

Computation Completed


Properties will be evaluated at   0.000000,   0.000000,   0.000000 [a0]

Properties computed using the SCF density matrix

  Nuclear Dipole Moment: [e a0]
     X:  -394.4144      Y:   116.0998      Z:   243.6402

  Electronic Dipole Moment: [e a0]
     X:   394.7056      Y:  -115.5359      Z:  -244.3435

  Dipole Moment: [e a0]
     X:     0.2912      Y:     0.5639      Z:    -0.7032     Total:     0.9473

  Dipole Moment: [D]
     X:     0.7401      Y:     1.4334      Z:    -1.7874     Total:     2.4077


*** tstop() called on ds1 at Mon Oct  4 15:18:54 2021
Module time:
	user time   =      20.89 seconds =       0.35 minutes
	system time =       0.33 seconds =       0.01 minutes
	total time  =          4 seconds =       0.07 minutes
Total time:
	user time   =      70.26 seconds =       1.17 minutes
	system time =       1.32 seconds =       0.02 minutes
	total time  =         14 seconds =       0.23 minutes
  Constructing Basis Sets for SAPT...

   => Loading Basis Set <=

    Name: (AUG-CC-PVDZ AUX)
    Role: RIFIT
    Keyword: DF_BASIS_SAPT
    atoms 1-2, 10-11 entry N          line   158 file /theoryfs2/ds/csargent/miniconda3/envs/cle/share/psi4/basis/aug-cc-pvdz-ri.gbs 
    atoms 3-6, 12-15 entry H          line    30 file /theoryfs2/ds/csargent/miniconda3/envs/cle/share/psi4/basis/aug-cc-pvdz-ri.gbs 
    atoms 7-9, 16-18 entry C          line   112 file /theoryfs2/ds/csargent/miniconda3/envs/cle/share/psi4/basis/aug-cc-pvdz-ri.gbs 


  //>>>>>>>>>>>>>>>>>>>>>>>>>>>>>>>>>>>//
  //               SAPT0               //
  //<<<<<<<<<<<<<<<<<<<<<<<<<<<<<<<<<<<//


*** tstart() called on ds1
*** at Mon Oct  4 15:18:54 2021

        SAPT0  
    Ed Hohenstein
     6 June 2009

      Orbital Information
  --------------------------
    NSO        =       302
    NMO        =       302
    NRI        =       904
    NOCC A     =        18
    NOCC B     =        18
    FOCC A     =         5
    FOCC B     =         5
    NVIR A     =       284
    NVIR B     =       284

    Elst10,r            =     0.000080357827 [Eh]
    Exch10              =     0.000000019095 [Eh]
    Exch10 (S^2)        =     0.000000019095 [Eh]

    Iter     Energy [mEh]          dE [mEh]         Residual      Time [s]
       1      -0.00074594       0.000745936       0.285370803             1
       2      -0.00069567      -0.000050261       0.069261417             1
       3      -0.00076092       0.000065243       0.028618254             1
       4      -0.00076975       0.000008828       0.009589358             1
       5      -0.00076717      -0.000002571       0.005167685             1
       6      -0.00076649      -0.000000688       0.001819469             1
       7      -0.00076669       0.000000205       0.000658793             1
       8      -0.00076683       0.000000136       0.000203494             1
       9      -0.00076683       0.000000002       0.000060535             2
      10      -0.00076681      -0.000000015       0.000017264             2
      11      -0.00076681       0.000000000       0.000005343             2
      12      -0.00076682       0.000000001       0.000001698             2
      13      -0.00076682      -0.000000000       0.000000586             2

    CHF Iterations converged


    Iter     Energy [mEh]          dE [mEh]         Residual      Time [s]
       1      -0.00152296       0.001522961       0.411554179             0
       2      -0.00144677      -0.000076192       0.113024815             0
       3      -0.00161151       0.000164740       0.032772647             0
       4      -0.00162404       0.000012528       0.010528698             1
       5      -0.00162101      -0.000003028       0.003910018             1
       6      -0.00162012      -0.000000891       0.001394170             1
       7      -0.00162019       0.000000071       0.000560116             1
       8      -0.00162040       0.000000207       0.000205432             1
       9      -0.00162038      -0.000000015       0.000093075             1
      10      -0.00162035      -0.000000032       0.000023349             1
      11      -0.00162035       0.000000004       0.000009407             1
      12      -0.00162036       0.000000003       0.000002486             2
      13      -0.00162036      -0.000000001       0.000000914             2

    CHF Iterations converged

    Ind20,r (A<-B)      =    -0.000000766815 [Eh]
    Ind20,r (B<-A)      =    -0.000001620356 [Eh]
    Ind20,r             =    -0.000002387171 [Eh]
    Exch-Ind20,r (A<-B) =     0.000000021907 [Eh]
    Exch-Ind20,r (B<-A) =     0.000000013317 [Eh]
    Exch-Ind20,r        =     0.000000035224 [Eh]
    Disp20              =    -0.000058621486 [Eh]
    Disp20 (SS)         =    -0.000029310743 [Eh]
    Disp20 (OS)         =    -0.000029310743 [Eh]
    Exch-Disp20         =     0.000000005815 [Eh]
    Exch-Disp20 (SS)    =     0.000000004638 [Eh]
    Exch-Disp20 (OS)    =     0.000000001177 [Eh]

    SAPT Results 
  --------------------------------------------------------------------------------------------------------
    Electrostatics                  0.08035783 [mEh]       0.05042530 [kcal/mol]       0.21097945 [kJ/mol]
      Elst10,r                      0.08035783 [mEh]       0.05042530 [kcal/mol]       0.21097945 [kJ/mol]

    Exchange                        0.00001909 [mEh]       0.00001198 [kcal/mol]       0.00005013 [kJ/mol]
      Exch10                        0.00001909 [mEh]       0.00001198 [kcal/mol]       0.00005013 [kJ/mol]
      Exch10(S^2)                   0.00001909 [mEh]       0.00001198 [kcal/mol]       0.00005013 [kJ/mol]

    Induction                      -0.00178224 [mEh]      -0.00111837 [kcal/mol]      -0.00467927 [kJ/mol]
      Ind20,r                      -0.00238717 [mEh]      -0.00149797 [kcal/mol]      -0.00626752 [kJ/mol]
      Exch-Ind20,r                  0.00003522 [mEh]       0.00002210 [kcal/mol]       0.00009248 [kJ/mol]
      delta HF,r (2)                0.00056971 [mEh]       0.00035750 [kcal/mol]       0.00149576 [kJ/mol]

    Dispersion                     -0.05861567 [mEh]      -0.03678189 [kcal/mol]      -0.15389542 [kJ/mol]
      Disp20                       -0.05862149 [mEh]      -0.03678554 [kcal/mol]      -0.15391069 [kJ/mol]
      Exch-Disp20                   0.00000581 [mEh]       0.00000365 [kcal/mol]       0.00001527 [kJ/mol]
      Disp20 (SS)                  -0.02931074 [mEh]      -0.01839277 [kcal/mol]      -0.07695534 [kJ/mol]
      Disp20 (OS)                  -0.02931074 [mEh]      -0.01839277 [kcal/mol]      -0.07695534 [kJ/mol]
      Exch-Disp20 (SS)              0.00000464 [mEh]       0.00000291 [kcal/mol]       0.00001218 [kJ/mol]
      Exch-Disp20 (OS)              0.00000118 [mEh]       0.00000074 [kcal/mol]       0.00000309 [kJ/mol]

  Total HF                          0.07859468 [mEh]       0.04931891 [kcal/mol]       0.20635031 [kJ/mol]
  Total SAPT0                       0.01997901 [mEh]       0.01253702 [kcal/mol]       0.05245488 [kJ/mol]

  Special recipe for scaled SAPT0 (see Manual):
    Electrostatics sSAPT0           0.08035783 [mEh]       0.05042530 [kcal/mol]       0.21097945 [kJ/mol]
    Exchange sSAPT0                 0.00001909 [mEh]       0.00001198 [kcal/mol]       0.00005013 [kJ/mol]
    Induction sSAPT0               -0.00178224 [mEh]      -0.00111837 [kcal/mol]      -0.00467927 [kJ/mol]
    Dispersion sSAPT0              -0.05861567 [mEh]      -0.03678189 [kcal/mol]      -0.15389542 [kJ/mol]
  Total sSAPT0                      0.01997901 [mEh]       0.01253702 [kcal/mol]       0.05245488 [kJ/mol]
  --------------------------------------------------------------------------------------------------------

*** tstop() called on ds1 at Mon Oct  4 15:19:04 2021
Module time:
	user time   =      47.85 seconds =       0.80 minutes
	system time =       4.28 seconds =       0.07 minutes
	total time  =         10 seconds =       0.17 minutes
Total time:
	user time   =     118.68 seconds =       1.98 minutes
	system time =       5.61 seconds =       0.09 minutes
	total time  =         24 seconds =       0.40 minutes


Warning! sapt0 does not have an associated derived wavefunction.The returned wavefunction is the dimer SCF wavefunction.


    Psi4 stopped on: Monday, 04 October 2021 03:19PM
    Psi4 wall time for execution: 0:00:24.68

*** Psi4 exiting successfully. Buy a developer a beer!
