
    -----------------------------------------------------------------------
          Psi4: An Open-Source Ab Initio Electronic Structure Package
                               Psi4 1.4rc3 

                         Git: Rev {HEAD} 080dba6 


    D. G. A. Smith, L. A. Burns, A. C. Simmonett, R. M. Parrish,
    M. C. Schieber, R. Galvelis, P. Kraus, H. Kruse, R. Di Remigio,
    A. Alenaizan, A. M. James, S. Lehtola, J. P. Misiewicz, M. Scheurer,
    R. A. Shaw, J. B. Schriber, Y. Xie, Z. L. Glick, D. A. Sirianni,
    J. S. O'Brien, J. M. Waldrop, A. Kumar, E. G. Hohenstein,
    B. P. Pritchard, B. R. Brooks, H. F. Schaefer III, A. Yu. Sokolov,
    K. Patkowski, A. E. DePrince III, U. Bozkaya, R. A. King,
    F. A. Evangelista, J. M. Turney, T. D. Crawford, C. D. Sherrill,
    J. Chem. Phys. 152(18) 184108 (2020). https://doi.org/10.1063/5.0006002

                            Additional Code Authors
    E. T. Seidl, C. L. Janssen, E. F. Valeev, M. L. Leininger,
    J. F. Gonthier, R. M. Richard, H. R. McAlexander, M. Saitow, X. Wang,
    P. Verma, and M. H. Lechner

             Previous Authors, Complete List of Code Contributors,
                       and Citations for Specific Modules
    https://github.com/psi4/psi4/blob/master/codemeta.json
    https://github.com/psi4/psi4/graphs/contributors
    http://psicode.org/psi4manual/master/introduction.html#citing-psifour

    -----------------------------------------------------------------------


    Psi4 started on: Monday, 04 October 2021 02:10PM

    Process ID: 9711
    Host:       ds1
    PSIDATADIR: /theoryfs2/ds/csargent/miniconda3/envs/cle/share/psi4
    Memory:     500.0 MiB
    Threads:    6
    
  ==> Input File <==

--------------------------------------------------------------------------
# PSI4 file produced by CrystaLattE

# Generated from:               pyrazole.xyz
# Psithon input for N-mer:      2mer-0+18
# Number of atoms per monomer:  [9, 9]
# Number of replicas:           1
# COM priority:                 1.119330458323e-03
# Minimum COM separations:      5.097 
# Separation priority:          1.860104927009e-02
# Minimum monomer separations:  1.997 
# Cutoff priority:              4.928520766513e-03
# Nuclear repulsion energy:     471.422324607388

memory 7 GB

molecule Dimer_0_18 {
  N            6.27981210      -4.25303372       0.19313865 
  N            6.06870777      -2.28125697       1.80544317 
  H            3.66871156      -5.64628941      -1.96684001 
  H            0.69034521      -2.37545694      -0.42864236 
  H            3.35917442       0.17650601       3.09265017 
  H            7.35266782      -1.99461311       2.90680702 
  C            3.77952586      -1.21508453       1.76858172 
  C            2.38242998      -2.55505538       0.04607681 
  C            4.01771468      -4.38410490      -0.88761863 
--
  N           10.53656684      -9.49302627      -1.54178140 
  N           10.65542910      -7.45511923      -0.00460768 
  H           13.20972957     -11.89393623      -2.25981175 
  H           16.10436613      -9.45139749       0.49532575 
  H           13.16794206      -5.73834848       2.39996206 
  H            9.19302089      -6.64514217       0.38115765 
  C           12.93826550      -7.12494356       1.02444117 
  C           14.42125794      -9.05461578       0.13451870 
  C           12.85995261     -10.43978359      -1.45717925 
units = au
no_com
no_reorient
}

set {
  e_convergence 10
  d_convergence 10
  scf_type df
  mp2_type df
  cc_type df
  freeze_core true
}

energy('sapt0/aug-cc-pvdz')

--------------------------------------------------------------------------

  Memory set to   6.519 GiB by Python driver.

Scratch directory: /scratch/csargent/psi4.7158.66302/

Scratch directory: /scratch/csargent/psi4.7158.66302/

  //>>>>>>>>>>>>>>>>>>>>>>>>>>>>>>>>>>>//
  //              Dimer HF             //
  //<<<<<<<<<<<<<<<<<<<<<<<<<<<<<<<<<<<//


*** tstart() called on ds1
*** at Mon Oct  4 14:10:06 2021

   => Loading Basis Set <=

    Name: AUG-CC-PVDZ
    Role: ORBITAL
    Keyword: BASIS
    atoms 1-2, 10-11 entry N          line   218 file /theoryfs2/ds/csargent/miniconda3/envs/cle/share/psi4/basis/aug-cc-pvdz.gbs 
    atoms 3-6, 12-15 entry H          line    40 file /theoryfs2/ds/csargent/miniconda3/envs/cle/share/psi4/basis/aug-cc-pvdz.gbs 
    atoms 7-9, 16-18 entry C          line   182 file /theoryfs2/ds/csargent/miniconda3/envs/cle/share/psi4/basis/aug-cc-pvdz.gbs 


         ---------------------------------------------------------
                                   SCF
               by Justin Turney, Rob Parrish, Andy Simmonett
                          and Daniel G. A. Smith
                              RHF Reference
                        6 Threads,   6675 MiB Core
         ---------------------------------------------------------

  ==> Geometry <==

    Molecular point group: c1
    Full point group: C1

    Geometry (in Bohr), charge = 0, multiplicity = 1:

       Center              X                  Y                   Z               Mass       
    ------------   -----------------  -----------------  -----------------  -----------------
         N            6.279812100000    -4.253033720000     0.193138650000    14.003074004430
         N            6.068707770000    -2.281256970000     1.805443170000    14.003074004430
         H            3.668711560000    -5.646289410000    -1.966840010000     1.007825032230
         H            0.690345210000    -2.375456940000    -0.428642360000     1.007825032230
         H            3.359174420000     0.176506010000     3.092650170000     1.007825032230
         H            7.352667820000    -1.994613110000     2.906807020000     1.007825032230
         C            3.779525860000    -1.215084530000     1.768581720000    12.000000000000
         C            2.382429980000    -2.555055380000     0.046076810000    12.000000000000
         C            4.017714680000    -4.384104900000    -0.887618630000    12.000000000000
         N           10.536566840000    -9.493026270000    -1.541781400000    14.003074004430
         N           10.655429100000    -7.455119230000    -0.004607680000    14.003074004430
         H           13.209729570000   -11.893936230000    -2.259811750000     1.007825032230
         H           16.104366130000    -9.451397490000     0.495325750000     1.007825032230
         H           13.167942060000    -5.738348480000     2.399962060000     1.007825032230
         H            9.193020890000    -6.645142170000     0.381157650000     1.007825032230
         C           12.938265500000    -7.124943560000     1.024441170000    12.000000000000
         C           14.421257940000    -9.054615780000     0.134518700000    12.000000000000
         C           12.859952610000   -10.439783590000    -1.457179250000    12.000000000000

  Running in c1 symmetry.

  Rotational constants: A =      0.14728  B =      0.00341  C =      0.00334 [cm^-1]
  Rotational constants: A =   4415.43454  B =    102.18586  C =    100.02855 [MHz]
  Nuclear repulsion =  471.422324571335025

  Charge       = 0
  Multiplicity = 1
  Electrons    = 72
  Nalpha       = 36
  Nbeta        = 36

  ==> Algorithm <==

  SCF Algorithm Type is DF.
  DIIS enabled.
  MOM disabled.
  Fractional occupation disabled.
  Guess Type is SAD.
  Energy threshold   = 1.00e-10
  Density threshold  = 1.00e-10
  Integral threshold = 1.00e-12

  ==> Primary Basis <==

  Basis Set: AUG-CC-PVDZ
    Blend: AUG-CC-PVDZ
    Number of shells: 130
    Number of basis functions: 302
    Number of Cartesian functions: 322
    Spherical Harmonics?: true
    Max angular momentum: 2

   => Loading Basis Set <=

    Name: (AUG-CC-PVDZ AUX)
    Role: JKFIT
    Keyword: DF_BASIS_SCF
    atoms 1-2, 10-11 entry N          line   212 file /theoryfs2/ds/csargent/miniconda3/envs/cle/share/psi4/basis/aug-cc-pvdz-jkfit.gbs 
    atoms 3-6, 12-15 entry H          line    70 file /theoryfs2/ds/csargent/miniconda3/envs/cle/share/psi4/basis/aug-cc-pvdz-jkfit.gbs 
    atoms 7-9, 16-18 entry C          line   154 file /theoryfs2/ds/csargent/miniconda3/envs/cle/share/psi4/basis/aug-cc-pvdz-jkfit.gbs 

  ==> Integral Setup <==

  ==> DiskDFJK: Density-Fitted J/K Matrices <==

    J tasked:                  Yes
    K tasked:                  Yes
    wK tasked:                  No
    OpenMP threads:              6
    Integrals threads:           6
    Memory [MiB]:             5006
    Algorithm:                Core
    Integral Cache:           SAVE
    Schwarz Cutoff:          1E-12
    Fitting Condition:       1E-10

   => Auxiliary Basis Set <=

  Basis Set: (AUG-CC-PVDZ AUX)
    Blend: AUG-CC-PVDZ-JKFIT
    Number of shells: 376
    Number of basis functions: 1116
    Number of Cartesian functions: 1290
    Spherical Harmonics?: true
    Max angular momentum: 3

  Minimum eigenvalue in the overlap matrix is 1.4727155153E-05.
  Reciprocal condition number of the overlap matrix is 1.0853806932E-06.
    Using symmetric orthogonalization.

  ==> Pre-Iterations <==

  SCF Guess: Superposition of Atomic Densities via on-the-fly atomic UHF (no occupation information).

   -------------------------
    Irrep   Nso     Nmo    
   -------------------------
     A        302     302 
   -------------------------
    Total     302     302
   -------------------------

  ==> Iterations <==

                           Total Energy        Delta E     RMS |[F,P]|

   @DF-RHF iter SAD:  -449.55979350317398   -4.49560e+02   0.00000e+00 
   @DF-RHF iter   1:  -449.28108346683729    2.78710e-01   2.10054e-03 DIIS
   @DF-RHF iter   2:  -449.48389657162869   -2.02813e-01   9.60875e-04 DIIS
   @DF-RHF iter   3:  -449.52444014152724   -4.05436e-02   2.25453e-04 DIIS
   @DF-RHF iter   4:  -449.52740400402456   -2.96386e-03   9.65822e-05 DIIS
   @DF-RHF iter   5:  -449.52784349299282   -4.39489e-04   1.71814e-05 DIIS
   @DF-RHF iter   6:  -449.52787587916089   -3.23862e-05   7.04036e-06 DIIS
   @DF-RHF iter   7:  -449.52788287806834   -6.99891e-06   3.69144e-06 DIIS
   @DF-RHF iter   8:  -449.52788471816785   -1.84010e-06   1.35099e-06 DIIS
   @DF-RHF iter   9:  -449.52788511115466   -3.92987e-07   4.46298e-07 DIIS
   @DF-RHF iter  10:  -449.52788513449497   -2.33403e-08   1.27228e-07 DIIS
   @DF-RHF iter  11:  -449.52788513620351   -1.70854e-09   3.86472e-08 DIIS
   @DF-RHF iter  12:  -449.52788513631020   -1.06695e-10   2.14417e-08 DIIS
   @DF-RHF iter  13:  -449.52788513634312   -3.29123e-11   5.29278e-09 DIIS
   @DF-RHF iter  14:  -449.52788513634744   -4.32010e-12   2.16036e-09 DIIS
   @DF-RHF iter  15:  -449.52788513634795   -5.11591e-13   1.01070e-09 DIIS
   @DF-RHF iter  16:  -449.52788513634823   -2.84217e-13   4.04125e-10 DIIS
   @DF-RHF iter  17:  -449.52788513634783    3.97904e-13   1.51582e-10 DIIS
   @DF-RHF iter  18:  -449.52788513634835   -5.11591e-13   4.38251e-11 DIIS
  Energy and wave function converged.


  ==> Post-Iterations <==

    Orbital Energies [Eh]
    ---------------------

    Doubly Occupied:                                                      

       1A    -15.650961     2A    -15.607603     3A    -15.606473  
       4A    -15.574037     5A    -11.294227     6A    -11.261023  
       7A    -11.253176     8A    -11.222075     9A    -11.219619  
      10A    -11.193090    11A     -1.402816    12A     -1.364865  
      13A     -1.137409    14A     -1.100902    15A     -1.081371  
      16A     -1.048294    17A     -0.886518    18A     -0.853541  
      19A     -0.849843    20A     -0.818901    21A     -0.772419  
      22A     -0.740167    23A     -0.659832    24A     -0.634659  
      25A     -0.628133    26A     -0.624320    27A     -0.602550  
      28A     -0.596906    29A     -0.587509    30A     -0.567373  
      31A     -0.482139    32A     -0.442992    33A     -0.385033  
      34A     -0.362184    35A     -0.348909    36A     -0.328749  

    Virtual:                                                              

      37A      0.023289    38A      0.036785    39A      0.041894  
      40A      0.048703    41A      0.055400    42A      0.067961  
      43A      0.077391    44A      0.078951    45A      0.096167  
      46A      0.104565    47A      0.115413    48A      0.122254  
      49A      0.124095    50A      0.126818    51A      0.128841  
      52A      0.133407    53A      0.136885    54A      0.140189  
      55A      0.150083    56A      0.151946    57A      0.158170  
      58A      0.158950    59A      0.160866    60A      0.170617  
      61A      0.173312    62A      0.175183    63A      0.179523  
      64A      0.183361    65A      0.192065    66A      0.201147  
      67A      0.206701    68A      0.218753    69A      0.227759  
      70A      0.230891    71A      0.245690    72A      0.252537  
      73A      0.254097    74A      0.258585    75A      0.264757  
      76A      0.287736    77A      0.290342    78A      0.296270  
      79A      0.300290    80A      0.309391    81A      0.318695  
      82A      0.327209    83A      0.332314    84A      0.348962  
      85A      0.352315    86A      0.361110    87A      0.367014  
      88A      0.382678    89A      0.388287    90A      0.395180  
      91A      0.398863    92A      0.404134    93A      0.409126  
      94A      0.417270    95A      0.424376    96A      0.427990  
      97A      0.432755    98A      0.441879    99A      0.448859  
     100A      0.453217   101A      0.460021   102A      0.466695  
     103A      0.474556   104A      0.476780   105A      0.487707  
     106A      0.493621   107A      0.504449   108A      0.508243  
     109A      0.521318   110A      0.522321   111A      0.528489  
     112A      0.549249   113A      0.553558   114A      0.568877  
     115A      0.579549   116A      0.594380   117A      0.597283  
     118A      0.601013   119A      0.606513   120A      0.619404  
     121A      0.627067   122A      0.633473   123A      0.646764  
     124A      0.648712   125A      0.655000   126A      0.660632  
     127A      0.668232   128A      0.671924   129A      0.675694  
     130A      0.690674   131A      0.695488   132A      0.699864  
     133A      0.709844   134A      0.712918   135A      0.718735  
     136A      0.725296   137A      0.736198   138A      0.739339  
     139A      0.757269   140A      0.758600   141A      0.774453  
     142A      0.778519   143A      0.784887   144A      0.801549  
     145A      0.813751   146A      0.814973   147A      0.836905  
     148A      0.841168   149A      0.847305   150A      0.859065  
     151A      0.864635   152A      0.870104   153A      0.885727  
     154A      0.891185   155A      0.897407   156A      0.907777  
     157A      0.916282   158A      0.925093   159A      0.937000  
     160A      0.951114   161A      0.964124   162A      0.968921  
     163A      0.980858   164A      0.989616   165A      0.999884  
     166A      1.005946   167A      1.010310   168A      1.029695  
     169A      1.038487   170A      1.051446   171A      1.079094  
     172A      1.089621   173A      1.102230   174A      1.121941  
     175A      1.131816   176A      1.134644   177A      1.142578  
     178A      1.165609   179A      1.172963   180A      1.181247  
     181A      1.186258   182A      1.212132   183A      1.221666  
     184A      1.261036   185A      1.275115   186A      1.282011  
     187A      1.290638   188A      1.319282   189A      1.331210  
     190A      1.344065   191A      1.354688   192A      1.394913  
     193A      1.413258   194A      1.425802   195A      1.459916  
     196A      1.494227   197A      1.520171   198A      1.534877  
     199A      1.540332   200A      1.550514   201A      1.572372  
     202A      1.584555   203A      1.587625   204A      1.597185  
     205A      1.613842   206A      1.616228   207A      1.639975  
     208A      1.646804   209A      1.649668   210A      1.671154  
     211A      1.693574   212A      1.711850   213A      1.721914  
     214A      1.729743   215A      1.748984   216A      1.756683  
     217A      1.777346   218A      1.790156   219A      1.808920  
     220A      1.810155   221A      1.831419   222A      1.850925  
     223A      1.905255   224A      1.938981   225A      1.942936  
     226A      1.960187   227A      1.976502   228A      2.002418  
     229A      2.008258   230A      2.040702   231A      2.062937  
     232A      2.067365   233A      2.099557   234A      2.109948  
     235A      2.139073   236A      2.143381   237A      2.176685  
     238A      2.191041   239A      2.214053   240A      2.215516  
     241A      2.218730   242A      2.237508   243A      2.262636  
     244A      2.286741   245A      2.292509   246A      2.323844  
     247A      2.334445   248A      2.361199   249A      2.380946  
     250A      2.390470   251A      2.416652   252A      2.424966  
     253A      2.442014   254A      2.455860   255A      2.480926  
     256A      2.492866   257A      2.516434   258A      2.553899  
     259A      2.577619   260A      2.594732   261A      2.605970  
     262A      2.627383   263A      2.642799   264A      2.657874  
     265A      2.710754   266A      2.757483   267A      2.812344  
     268A      2.829481   269A      2.851397   270A      2.855612  
     271A      2.882899   272A      2.903585   273A      2.928245  
     274A      2.941558   275A      2.945079   276A      2.998691  
     277A      3.052921   278A      3.069240   279A      3.078651  
     280A      3.095422   281A      3.126988   282A      3.130323  
     283A      3.164434   284A      3.212207   285A      3.233233  
     286A      3.253016   287A      3.282799   288A      3.300001  
     289A      3.363618   290A      3.398577   291A      3.421369  
     292A      3.523199   293A      3.550573   294A      3.602368  
     295A      3.698212   296A      3.745664   297A      3.911733  
     298A      4.001686   299A      4.278489   300A      4.341035  
     301A      4.465694   302A      4.515437  

    Final Occupation by Irrep:
              A 
    DOCC [    36 ]

  @DF-RHF Final Energy:  -449.52788513634835

   => Energetics <=

    Nuclear Repulsion Energy =            471.4223245713350252
    One-Electron Energy =               -1543.5191798558739720
    Two-Electron Energy =                 622.5689701481904876
    Total Energy =                       -449.5278851363483454

Computation Completed


Properties will be evaluated at   0.000000,   0.000000,   0.000000 [a0]

Properties computed using the SCF density matrix

  Nuclear Dipole Moment: [e a0]
     X:   603.9244      Y:  -416.5873      Z:    11.5589

  Electronic Dipole Moment: [e a0]
     X:  -604.4555      Y:   418.0160      Z:   -10.3255

  Dipole Moment: [e a0]
     X:    -0.5311      Y:     1.4288      Z:     1.2334     Total:     1.9608

  Dipole Moment: [D]
     X:    -1.3499      Y:     3.6316      Z:     3.1349     Total:     4.9838


*** tstop() called on ds1 at Mon Oct  4 14:10:13 2021
Module time:
	user time   =      34.95 seconds =       0.58 minutes
	system time =       0.71 seconds =       0.01 minutes
	total time  =          7 seconds =       0.12 minutes
Total time:
	user time   =      34.95 seconds =       0.58 minutes
	system time =       0.71 seconds =       0.01 minutes
	total time  =          7 seconds =       0.12 minutes

  //>>>>>>>>>>>>>>>>>>>>>>>>>>>>>>>>>>>//
  //            Monomer A HF           //
  //<<<<<<<<<<<<<<<<<<<<<<<<<<<<<<<<<<<//


*** tstart() called on ds1
*** at Mon Oct  4 14:10:13 2021

   => Loading Basis Set <=

    Name: AUG-CC-PVDZ
    Role: ORBITAL
    Keyword: BASIS
    atoms 1-2, 10-11 entry N          line   218 file /theoryfs2/ds/csargent/miniconda3/envs/cle/share/psi4/basis/aug-cc-pvdz.gbs 
    atoms 3-6, 12-15 entry H          line    40 file /theoryfs2/ds/csargent/miniconda3/envs/cle/share/psi4/basis/aug-cc-pvdz.gbs 
    atoms 7-9, 16-18 entry C          line   182 file /theoryfs2/ds/csargent/miniconda3/envs/cle/share/psi4/basis/aug-cc-pvdz.gbs 


         ---------------------------------------------------------
                                   SCF
               by Justin Turney, Rob Parrish, Andy Simmonett
                          and Daniel G. A. Smith
                              RHF Reference
                        6 Threads,   6675 MiB Core
         ---------------------------------------------------------

  ==> Geometry <==

    Molecular point group: c1
    Full point group: C1

    Geometry (in Bohr), charge = 0, multiplicity = 1:

       Center              X                  Y                   Z               Mass       
    ------------   -----------------  -----------------  -----------------  -----------------
         N            6.279812100000    -4.253033720000     0.193138650000    14.003074004430
         N            6.068707770000    -2.281256970000     1.805443170000    14.003074004430
         H            3.668711560000    -5.646289410000    -1.966840010000     1.007825032230
         H            0.690345210000    -2.375456940000    -0.428642360000     1.007825032230
         H            3.359174420000     0.176506010000     3.092650170000     1.007825032230
         H            7.352667820000    -1.994613110000     2.906807020000     1.007825032230
         C            3.779525860000    -1.215084530000     1.768581720000    12.000000000000
         C            2.382429980000    -2.555055380000     0.046076810000    12.000000000000
         C            4.017714680000    -4.384104900000    -0.887618630000    12.000000000000
      Gh(N)          10.536566840000    -9.493026270000    -1.541781400000    14.003074004430
      Gh(N)          10.655429100000    -7.455119230000    -0.004607680000    14.003074004430
      Gh(H)          13.209729570000   -11.893936230000    -2.259811750000     1.007825032230
      Gh(H)          16.104366130000    -9.451397490000     0.495325750000     1.007825032230
      Gh(H)          13.167942060000    -5.738348480000     2.399962060000     1.007825032230
      Gh(H)           9.193020890000    -6.645142170000     0.381157650000     1.007825032230
      Gh(C)          12.938265500000    -7.124943560000     1.024441170000    12.000000000000
      Gh(C)          14.421257940000    -9.054615780000     0.134518700000    12.000000000000
      Gh(C)          12.859952610000   -10.439783590000    -1.457179250000    12.000000000000

  Running in c1 symmetry.

  Rotational constants: A =      0.14728  B =      0.00341  C =      0.00334 [cm^-1]
  Rotational constants: A =   4415.43454  B =    102.18586  C =    100.02855 [MHz]
  Nuclear repulsion =  166.624056450327203

  Charge       = 0
  Multiplicity = 1
  Electrons    = 36
  Nalpha       = 18
  Nbeta        = 18

  ==> Algorithm <==

  SCF Algorithm Type is DF.
  DIIS enabled.
  MOM disabled.
  Fractional occupation disabled.
  Guess Type is SAD.
  Energy threshold   = 1.00e-10
  Density threshold  = 1.00e-10
  Integral threshold = 1.00e-12

  ==> Primary Basis <==

  Basis Set: AUG-CC-PVDZ
    Blend: AUG-CC-PVDZ
    Number of shells: 130
    Number of basis functions: 302
    Number of Cartesian functions: 322
    Spherical Harmonics?: true
    Max angular momentum: 2

   => Loading Basis Set <=

    Name: (AUG-CC-PVDZ AUX)
    Role: JKFIT
    Keyword: DF_BASIS_SCF
    atoms 1-2, 10-11 entry N          line   212 file /theoryfs2/ds/csargent/miniconda3/envs/cle/share/psi4/basis/aug-cc-pvdz-jkfit.gbs 
    atoms 3-6, 12-15 entry H          line    70 file /theoryfs2/ds/csargent/miniconda3/envs/cle/share/psi4/basis/aug-cc-pvdz-jkfit.gbs 
    atoms 7-9, 16-18 entry C          line   154 file /theoryfs2/ds/csargent/miniconda3/envs/cle/share/psi4/basis/aug-cc-pvdz-jkfit.gbs 

  ==> Integral Setup <==

  ==> DiskDFJK: Density-Fitted J/K Matrices <==

    J tasked:                  Yes
    K tasked:                  Yes
    wK tasked:                  No
    OpenMP threads:              6
    Integrals threads:           6
    Memory [MiB]:             5006
    Algorithm:                Core
    Integral Cache:           LOAD
    Schwarz Cutoff:          1E-12
    Fitting Condition:       1E-10

   => Auxiliary Basis Set <=

  Basis Set: (AUG-CC-PVDZ AUX)
    Blend: AUG-CC-PVDZ-JKFIT
    Number of shells: 376
    Number of basis functions: 1116
    Number of Cartesian functions: 1290
    Spherical Harmonics?: true
    Max angular momentum: 3

  Minimum eigenvalue in the overlap matrix is 1.4727155153E-05.
  Reciprocal condition number of the overlap matrix is 1.0853806932E-06.
    Using symmetric orthogonalization.

  ==> Pre-Iterations <==

  SCF Guess: Superposition of Atomic Densities via on-the-fly atomic UHF (no occupation information).

   -------------------------
    Irrep   Nso     Nmo    
   -------------------------
     A        302     302 
   -------------------------
    Total     302     302
   -------------------------

  ==> Iterations <==

                           Total Energy        Delta E     RMS |[F,P]|

   @DF-RHF iter SAD:  -224.72195370640887   -2.24722e+02   0.00000e+00 
   @DF-RHF iter   1:  -224.63583091167754    8.61228e-02   1.50637e-03 DIIS
   @DF-RHF iter   2:  -224.74022087398436   -1.04390e-01   6.89230e-04 DIIS
   @DF-RHF iter   3:  -224.76115704625926   -2.09362e-02   1.48751e-04 DIIS
   @DF-RHF iter   4:  -224.76254267566125   -1.38563e-03   6.05445e-05 DIIS
   @DF-RHF iter   5:  -224.76272112540593   -1.78450e-04   1.20188e-05 DIIS
   @DF-RHF iter   6:  -224.76273810840118   -1.69830e-05   4.96911e-06 DIIS
   @DF-RHF iter   7:  -224.76274207096631   -3.96257e-06   2.18660e-06 DIIS
   @DF-RHF iter   8:  -224.76274283082330   -7.59857e-07   1.01829e-06 DIIS
   @DF-RHF iter   9:  -224.76274299890997   -1.68087e-07   2.83527e-07 DIIS
   @DF-RHF iter  10:  -224.76274300775862   -8.84864e-09   8.58588e-08 DIIS
   @DF-RHF iter  11:  -224.76274300845444   -6.95820e-10   2.00494e-08 DIIS
   @DF-RHF iter  12:  -224.76274300850059   -4.61569e-11   5.84646e-09 DIIS
   @DF-RHF iter  13:  -224.76274300850559   -5.00222e-12   2.86346e-09 DIIS
   @DF-RHF iter  14:  -224.76274300850633   -7.38964e-13   9.94885e-10 DIIS
   @DF-RHF iter  15:  -224.76274300850639   -5.68434e-14   4.20481e-10 DIIS
   @DF-RHF iter  16:  -224.76274300850628    1.13687e-13   1.26016e-10 DIIS
   @DF-RHF iter  17:  -224.76274300850685   -5.68434e-13   4.52360e-11 DIIS
  Energy and wave function converged.


  ==> Post-Iterations <==

    Orbital Energies [Eh]
    ---------------------

    Doubly Occupied:                                                      

       1A    -15.636132     2A    -15.592351     3A    -11.279809  
       4A    -11.237579     5A    -11.209822     6A     -1.386875  
       7A     -1.121872     8A     -1.066876     9A     -0.872750  
      10A     -0.837062    11A     -0.757278    12A     -0.645720  
      13A     -0.620816    14A     -0.609109    15A     -0.583906  
      16A     -0.461402    17A     -0.370696    18A     -0.346016  

    Virtual:                                                              

      19A      0.026697    20A      0.033194    21A      0.039694  
      22A      0.047712    23A      0.050420    24A      0.066989  
      25A      0.073670    26A      0.079984    27A      0.091923  
      28A      0.102985    29A      0.108192    30A      0.110699  
      31A      0.114526    32A      0.122557    33A      0.128121  
      34A      0.129551    35A      0.133217    36A      0.135543  
      37A      0.140882    38A      0.151893    39A      0.152664  
      40A      0.155155    41A      0.161352    42A      0.167606  
      43A      0.170560    44A      0.174836    45A      0.180413  
      46A      0.188646    47A      0.195788    48A      0.201637  
      49A      0.211616    50A      0.215311    51A      0.220560  
      52A      0.230868    53A      0.235599    54A      0.251118  
      55A      0.256525    56A      0.259079    57A      0.261893  
      58A      0.271464    59A      0.275301    60A      0.297674  
      61A      0.303050    62A      0.313851    63A      0.329871  
      64A      0.344027    65A      0.348787    66A      0.358894  
      67A      0.365485    68A      0.368045    69A      0.371058  
      70A      0.373531    71A      0.392956    72A      0.398793  
      73A      0.403394    74A      0.412187    75A      0.422096  
      76A      0.425030    77A      0.436537    78A      0.441133  
      79A      0.446239    80A      0.453851    81A      0.458184  
      82A      0.461359    83A      0.465778    84A      0.475219  
      85A      0.482957    86A      0.491794    87A      0.501649  
      88A      0.505135    89A      0.517463    90A      0.526122  
      91A      0.535152    92A      0.540524    93A      0.544294  
      94A      0.558859    95A      0.566054    96A      0.568842  
      97A      0.580069    98A      0.593987    99A      0.605280  
     100A      0.605752   101A      0.616167   102A      0.625826  
     103A      0.638079   104A      0.641810   105A      0.651993  
     106A      0.653500   107A      0.658076   108A      0.667237  
     109A      0.682661   110A      0.684758   111A      0.698957  
     112A      0.699703   113A      0.707118   114A      0.714902  
     115A      0.723226   116A      0.735186   117A      0.735896  
     118A      0.751289   119A      0.762451   120A      0.767940  
     121A      0.772076   122A      0.790540   123A      0.797246  
     124A      0.821623   125A      0.825334   126A      0.828367  
     127A      0.840934   128A      0.852847   129A      0.854277  
     130A      0.856867   131A      0.867062   132A      0.875744  
     133A      0.881873   134A      0.892267   135A      0.898693  
     136A      0.900216   137A      0.913626   138A      0.919316  
     139A      0.943225   140A      0.957141   141A      0.959970  
     142A      0.966844   143A      0.987143   144A      0.996995  
     145A      1.007304   146A      1.028737   147A      1.036438  
     148A      1.042829   149A      1.048677   150A      1.070162  
     151A      1.077832   152A      1.093814   153A      1.099588  
     154A      1.117539   155A      1.126721   156A      1.141524  
     157A      1.146318   158A      1.166603   159A      1.198271  
     160A      1.220530   161A      1.224879   162A      1.230386  
     163A      1.242536   164A      1.249485   165A      1.281273  
     166A      1.290624   167A      1.302267   168A      1.313580  
     169A      1.330090   170A      1.342590   171A      1.363930  
     172A      1.366969   173A      1.379854   174A      1.405585  
     175A      1.413849   176A      1.449911   177A      1.455254  
     178A      1.483589   179A      1.519919   180A      1.530134  
     181A      1.550744   182A      1.560264   183A      1.584181  
     184A      1.608387   185A      1.626693   186A      1.631279  
     187A      1.657118   188A      1.669222   189A      1.688150  
     190A      1.721769   191A      1.728999   192A      1.750803  
     193A      1.766916   194A      1.794268   195A      1.831722  
     196A      1.856618   197A      1.929276   198A      1.955451  
     199A      1.976731   200A      2.023022   201A      2.078450  
     202A      2.095552   203A      2.099396   204A      2.125575  
     205A      2.135448   206A      2.154783   207A      2.179287  
     208A      2.195614   209A      2.209468   210A      2.235992  
     211A      2.254119   212A      2.266023   213A      2.272268  
     214A      2.289754   215A      2.297790   216A      2.317977  
     217A      2.327858   218A      2.335903   219A      2.370666  
     220A      2.383702   221A      2.403716   222A      2.426366  
     223A      2.446032   224A      2.454840   225A      2.473885  
     226A      2.482146   227A      2.506525   228A      2.533250  
     229A      2.555660   230A      2.568018   231A      2.584232  
     232A      2.585966   233A      2.632250   234A      2.653772  
     235A      2.690277   236A      2.710172   237A      2.724516  
     238A      2.735853   239A      2.776051   240A      2.835424  
     241A      2.861809   242A      2.865062   243A      2.903541  
     244A      2.908335   245A      2.941930   246A      2.954738  
     247A      2.967593   248A      3.018470   249A      3.056251  
     250A      3.084706   251A      3.099039   252A      3.117653  
     253A      3.140699   254A      3.179053   255A      3.202990  
     256A      3.242634   257A      3.274153   258A      3.287692  
     259A      3.310029   260A      3.328870   261A      3.398203  
     262A      3.415130   263A      3.450728   264A      3.473596  
     265A      3.488922   266A      3.526329   267A      3.531182  
     268A      3.562591   269A      3.615987   270A      3.669794  
     271A      3.702417   272A      3.799379   273A      3.833986  
     274A      3.882104   275A      3.927208   276A      3.951246  
     277A      4.009269   278A      4.064530   279A      4.162488  
     280A      4.316355   281A      4.373086   282A      4.473883  
     283A      4.483566   284A      4.696506   285A      4.781692  
     286A      4.824112   287A      4.878642   288A      5.053489  
     289A      5.211101   290A      5.289062   291A      5.581311  
     292A      5.753225   293A      5.878116   294A      6.136504  
     295A      6.348915   296A      6.749540   297A      7.093631  
     298A     18.146119   299A     18.692117   300A     19.462384  
     301A     25.273119   302A     25.748153  

    Final Occupation by Irrep:
              A 
    DOCC [    18 ]

  @DF-RHF Final Energy:  -224.76274300850685

   => Energetics <=

    Nuclear Repulsion Energy =            166.6240564503272026
    One-Electron Energy =                -633.5014619986985736
    Two-Electron Energy =                 242.1146625398645256
    Total Energy =                       -224.7627430085068454

Computation Completed


Properties will be evaluated at   0.000000,   0.000000,   0.000000 [a0]

Properties computed using the SCF density matrix

  Nuclear Dipole Moment: [e a0]
     X:   162.5886      Y:  -104.5054      Z:    23.1563

  Electronic Dipole Moment: [e a0]
     X:  -162.9895      Y:   105.1359      Z:   -22.5767

  Dipole Moment: [e a0]
     X:    -0.4010      Y:     0.6305      Z:     0.5796     Total:     0.9457

  Dipole Moment: [D]
     X:    -1.0192      Y:     1.6027      Z:     1.4732     Total:     2.4037


*** tstop() called on ds1 at Mon Oct  4 14:10:18 2021
Module time:
	user time   =      24.18 seconds =       0.40 minutes
	system time =       0.42 seconds =       0.01 minutes
	total time  =          5 seconds =       0.08 minutes
Total time:
	user time   =      59.23 seconds =       0.99 minutes
	system time =       1.14 seconds =       0.02 minutes
	total time  =         12 seconds =       0.20 minutes

  //>>>>>>>>>>>>>>>>>>>>>>>>>>>>>>>>>>>//
  //            Monomer B HF           //
  //<<<<<<<<<<<<<<<<<<<<<<<<<<<<<<<<<<<//


*** tstart() called on ds1
*** at Mon Oct  4 14:10:18 2021

   => Loading Basis Set <=

    Name: AUG-CC-PVDZ
    Role: ORBITAL
    Keyword: BASIS
    atoms 1-2, 10-11 entry N          line   218 file /theoryfs2/ds/csargent/miniconda3/envs/cle/share/psi4/basis/aug-cc-pvdz.gbs 
    atoms 3-6, 12-15 entry H          line    40 file /theoryfs2/ds/csargent/miniconda3/envs/cle/share/psi4/basis/aug-cc-pvdz.gbs 
    atoms 7-9, 16-18 entry C          line   182 file /theoryfs2/ds/csargent/miniconda3/envs/cle/share/psi4/basis/aug-cc-pvdz.gbs 


         ---------------------------------------------------------
                                   SCF
               by Justin Turney, Rob Parrish, Andy Simmonett
                          and Daniel G. A. Smith
                              RHF Reference
                        6 Threads,   6675 MiB Core
         ---------------------------------------------------------

  ==> Geometry <==

    Molecular point group: c1
    Full point group: C1

    Geometry (in Bohr), charge = 0, multiplicity = 1:

       Center              X                  Y                   Z               Mass       
    ------------   -----------------  -----------------  -----------------  -----------------
      Gh(N)           6.279812100000    -4.253033720000     0.193138650000    14.003074004430
      Gh(N)           6.068707770000    -2.281256970000     1.805443170000    14.003074004430
      Gh(H)           3.668711560000    -5.646289410000    -1.966840010000     1.007825032230
      Gh(H)           0.690345210000    -2.375456940000    -0.428642360000     1.007825032230
      Gh(H)           3.359174420000     0.176506010000     3.092650170000     1.007825032230
      Gh(H)           7.352667820000    -1.994613110000     2.906807020000     1.007825032230
      Gh(C)           3.779525860000    -1.215084530000     1.768581720000    12.000000000000
      Gh(C)           2.382429980000    -2.555055380000     0.046076810000    12.000000000000
      Gh(C)           4.017714680000    -4.384104900000    -0.887618630000    12.000000000000
         N           10.536566840000    -9.493026270000    -1.541781400000    14.003074004430
         N           10.655429100000    -7.455119230000    -0.004607680000    14.003074004430
         H           13.209729570000   -11.893936230000    -2.259811750000     1.007825032230
         H           16.104366130000    -9.451397490000     0.495325750000     1.007825032230
         H           13.167942060000    -5.738348480000     2.399962060000     1.007825032230
         H            9.193020890000    -6.645142170000     0.381157650000     1.007825032230
         C           12.938265500000    -7.124943560000     1.024441170000    12.000000000000
         C           14.421257940000    -9.054615780000     0.134518700000    12.000000000000
         C           12.859952610000   -10.439783590000    -1.457179250000    12.000000000000

  Running in c1 symmetry.

  Rotational constants: A =      0.14728  B =      0.00341  C =      0.00334 [cm^-1]
  Rotational constants: A =   4415.43454  B =    102.18586  C =    100.02855 [MHz]
  Nuclear repulsion =  166.628602768744088

  Charge       = 0
  Multiplicity = 1
  Electrons    = 36
  Nalpha       = 18
  Nbeta        = 18

  ==> Algorithm <==

  SCF Algorithm Type is DF.
  DIIS enabled.
  MOM disabled.
  Fractional occupation disabled.
  Guess Type is SAD.
  Energy threshold   = 1.00e-10
  Density threshold  = 1.00e-10
  Integral threshold = 1.00e-12

  ==> Primary Basis <==

  Basis Set: AUG-CC-PVDZ
    Blend: AUG-CC-PVDZ
    Number of shells: 130
    Number of basis functions: 302
    Number of Cartesian functions: 322
    Spherical Harmonics?: true
    Max angular momentum: 2

   => Loading Basis Set <=

    Name: (AUG-CC-PVDZ AUX)
    Role: JKFIT
    Keyword: DF_BASIS_SCF
    atoms 1-2, 10-11 entry N          line   212 file /theoryfs2/ds/csargent/miniconda3/envs/cle/share/psi4/basis/aug-cc-pvdz-jkfit.gbs 
    atoms 3-6, 12-15 entry H          line    70 file /theoryfs2/ds/csargent/miniconda3/envs/cle/share/psi4/basis/aug-cc-pvdz-jkfit.gbs 
    atoms 7-9, 16-18 entry C          line   154 file /theoryfs2/ds/csargent/miniconda3/envs/cle/share/psi4/basis/aug-cc-pvdz-jkfit.gbs 

  ==> Integral Setup <==

  ==> DiskDFJK: Density-Fitted J/K Matrices <==

    J tasked:                  Yes
    K tasked:                  Yes
    wK tasked:                  No
    OpenMP threads:              6
    Integrals threads:           6
    Memory [MiB]:             5006
    Algorithm:                Core
    Integral Cache:           LOAD
    Schwarz Cutoff:          1E-12
    Fitting Condition:       1E-10

   => Auxiliary Basis Set <=

  Basis Set: (AUG-CC-PVDZ AUX)
    Blend: AUG-CC-PVDZ-JKFIT
    Number of shells: 376
    Number of basis functions: 1116
    Number of Cartesian functions: 1290
    Spherical Harmonics?: true
    Max angular momentum: 3

  Minimum eigenvalue in the overlap matrix is 1.4727155153E-05.
  Reciprocal condition number of the overlap matrix is 1.0853806932E-06.
    Using symmetric orthogonalization.

  ==> Pre-Iterations <==

  SCF Guess: Superposition of Atomic Densities via on-the-fly atomic UHF (no occupation information).

   -------------------------
    Irrep   Nso     Nmo    
   -------------------------
     A        302     302 
   -------------------------
    Total     302     302
   -------------------------

  ==> Iterations <==

                           Total Energy        Delta E     RMS |[F,P]|

   @DF-RHF iter SAD:  -224.72251367717195   -2.24723e+02   0.00000e+00 
   @DF-RHF iter   1:  -224.63598420969646    8.65295e-02   1.50604e-03 DIIS
   @DF-RHF iter   2:  -224.74036342586135   -1.04379e-01   6.88864e-04 DIIS
   @DF-RHF iter   3:  -224.76128951314010   -2.09261e-02   1.48705e-04 DIIS
   @DF-RHF iter   4:  -224.76267441187852   -1.38490e-03   6.05473e-05 DIIS
   @DF-RHF iter   5:  -224.76285273380071   -1.78322e-04   1.20012e-05 DIIS
   @DF-RHF iter   6:  -224.76286967418389   -1.69404e-05   4.96083e-06 DIIS
   @DF-RHF iter   7:  -224.76287361838527   -3.94420e-06   2.18567e-06 DIIS
   @DF-RHF iter   8:  -224.76287437739137   -7.59006e-07   1.01666e-06 DIIS
   @DF-RHF iter   9:  -224.76287454510023   -1.67709e-07   2.83268e-07 DIIS
   @DF-RHF iter  10:  -224.76287455392810   -8.82787e-09   8.56510e-08 DIIS
   @DF-RHF iter  11:  -224.76287455461903   -6.90932e-10   1.99887e-08 DIIS
   @DF-RHF iter  12:  -224.76287455466513   -4.61000e-11   5.81622e-09 DIIS
   @DF-RHF iter  13:  -224.76287455466939   -4.26326e-12   2.84464e-09 DIIS
   @DF-RHF iter  14:  -224.76287455467076   -1.36424e-12   9.85303e-10 DIIS
   @DF-RHF iter  15:  -224.76287455467082   -5.68434e-14   4.17524e-10 DIIS
   @DF-RHF iter  16:  -224.76287455467079    2.84217e-14   1.25948e-10 DIIS
   @DF-RHF iter  17:  -224.76287455467099   -1.98952e-13   4.52560e-11 DIIS
  Energy and wave function converged.


  ==> Post-Iterations <==

    Orbital Energies [Eh]
    ---------------------

    Doubly Occupied:                                                      

       1A    -15.636118     2A    -15.592294     3A    -11.279733  
       4A    -11.237707     5A    -11.209820     6A     -1.386925  
       7A     -1.121844     8A     -1.066892     9A     -0.872720  
      10A     -0.837011    11A     -0.757227    12A     -0.645717  
      13A     -0.620796    14A     -0.609129    15A     -0.583867  
      16A     -0.461356    17A     -0.370680    18A     -0.346017  

    Virtual:                                                              

      19A      0.018944    20A      0.035029    21A      0.039368  
      22A      0.046987    23A      0.051333    24A      0.064321  
      25A      0.069255    26A      0.074539    27A      0.085915  
      28A      0.097402    29A      0.103117    30A      0.111685  
      31A      0.117229    32A      0.122170    33A      0.123310  
      34A      0.127428    35A      0.130016    36A      0.133839  
      37A      0.133998    38A      0.144368    39A      0.146167  
      40A      0.154612    41A      0.159278    42A      0.167489  
      43A      0.171189    44A      0.172512    45A      0.178832  
      46A      0.184441    47A      0.198483    48A      0.200379  
      49A      0.206199    50A      0.209161    51A      0.219472  
      52A      0.229129    53A      0.235460    54A      0.240386  
      55A      0.243965    56A      0.255689    57A      0.261107  
      58A      0.276118    59A      0.280481    60A      0.285772  
      61A      0.286654    62A      0.316000    63A      0.317769  
      64A      0.332842    65A      0.341906    66A      0.344976  
      67A      0.358440    68A      0.365244    69A      0.378248  
      70A      0.383515    71A      0.383959    72A      0.394607  
      73A      0.403919    74A      0.406910    75A      0.415865  
      76A      0.420508    77A      0.424337    78A      0.431924  
      79A      0.437369    80A      0.450322    81A      0.459253  
      82A      0.462790    83A      0.465959    84A      0.473330  
      85A      0.480200    86A      0.483539    87A      0.500543  
      88A      0.504166    89A      0.505659    90A      0.521717  
      91A      0.523332    92A      0.529782    93A      0.535565  
      94A      0.542899    95A      0.547777    96A      0.565004  
      97A      0.580844    98A      0.584250    99A      0.592948  
     100A      0.598042   101A      0.598802   102A      0.608555  
     103A      0.616027   104A      0.632529   105A      0.635584  
     106A      0.645045   107A      0.650286   108A      0.658359  
     109A      0.667278   110A      0.681066   111A      0.684761  
     112A      0.695543   113A      0.700876   114A      0.703887  
     115A      0.720260   116A      0.732143   117A      0.736897  
     118A      0.746560   119A      0.752167   120A      0.760197  
     121A      0.765435   122A      0.776514   123A      0.783343  
     124A      0.801529   125A      0.822374   126A      0.825848  
     127A      0.832370   128A      0.840488   129A      0.845928  
     130A      0.851990   131A      0.858653   132A      0.871131  
     133A      0.882983   134A      0.894018   135A      0.900781  
     136A      0.907748   137A      0.920229   138A      0.927539  
     139A      0.931653   140A      0.948921   141A      0.957421  
     142A      0.964476   143A      0.983367   144A      0.988375  
     145A      1.011764   146A      1.013346   147A      1.023470  
     148A      1.045951   149A      1.049129   150A      1.059924  
     151A      1.076433   152A      1.084833   153A      1.102286  
     154A      1.115863   155A      1.121368   156A      1.126746  
     157A      1.144398   158A      1.150558   159A      1.155714  
     160A      1.171172   161A      1.192481   162A      1.209478  
     163A      1.220523   164A      1.230004   165A      1.252789  
     166A      1.265835   167A      1.278245   168A      1.288554  
     169A      1.313651   170A      1.317138   171A      1.329468  
     172A      1.359454   173A      1.367654   174A      1.401026  
     175A      1.402262   176A      1.419423   177A      1.458644  
     178A      1.467242   179A      1.509829   180A      1.524326  
     181A      1.541308   182A      1.547684   183A      1.563616  
     184A      1.575720   185A      1.603366   186A      1.624547  
     187A      1.638461   188A      1.645901   189A      1.706515  
     190A      1.728161   191A      1.741083   192A      1.756027  
     193A      1.776455   194A      1.800818   195A      1.813272  
     196A      1.833662   197A      1.934325   198A      1.962623  
     199A      1.989696   200A      2.017902   201A      2.051203  
     202A      2.065210   203A      2.096499   204A      2.113048  
     205A      2.120421   206A      2.137357   207A      2.166603  
     208A      2.168011   209A      2.203912   210A      2.214673  
     211A      2.241229   212A      2.255198   213A      2.263139  
     214A      2.282139   215A      2.284855   216A      2.291579  
     217A      2.302027   218A      2.360912   219A      2.369587  
     220A      2.371903   221A      2.402645   222A      2.413613  
     223A      2.429031   224A      2.439621   225A      2.460130  
     226A      2.468062   227A      2.491802   228A      2.511462  
     229A      2.537373   230A      2.554146   231A      2.581305  
     232A      2.607197   233A      2.627398   234A      2.628920  
     235A      2.653129   236A      2.683055   237A      2.738737  
     238A      2.747082   239A      2.757093   240A      2.818771  
     241A      2.835775   242A      2.863237   243A      2.875024  
     244A      2.888193   245A      2.915878   246A      2.935098  
     247A      2.976704   248A      3.014359   249A      3.053290  
     250A      3.074413   251A      3.088955   252A      3.102001  
     253A      3.112230   254A      3.153254   255A      3.167684  
     256A      3.208535   257A      3.239020   258A      3.257951  
     259A      3.314238   260A      3.326263   261A      3.402089  
     262A      3.416548   263A      3.418437   264A      3.457893  
     265A      3.482406   266A      3.497658   267A      3.512431  
     268A      3.577926   269A      3.620525   270A      3.677968  
     271A      3.713872   272A      3.749836   273A      3.778339  
     274A      3.807716   275A      3.852262   276A      3.973355  
     277A      4.004774   278A      4.052767   279A      4.200226  
     280A      4.260590   281A      4.299394   282A      4.488234  
     283A      4.498416   284A      4.670582   285A      4.719533  
     286A      4.815312   287A      4.848270   288A      5.014703  
     289A      5.279746   290A      5.313855   291A      5.569437  
     292A      5.710325   293A      5.857519   294A      6.110035  
     295A      6.319670   296A      6.712496   297A      6.963599  
     298A     18.110143   299A     18.692851   300A     19.425356  
     301A     25.241084   302A     25.750333  

    Final Occupation by Irrep:
              A 
    DOCC [    18 ]

  @DF-RHF Final Energy:  -224.76287455467099

   => Energetics <=

    Nuclear Repulsion Energy =            166.6286027687440878
    One-Electron Energy =                -633.5112468164307984
    Two-Electron Energy =                 242.1197694930157240
    Total Energy =                       -224.7628745546709865

Computation Completed


Properties will be evaluated at   0.000000,   0.000000,   0.000000 [a0]

Properties computed using the SCF density matrix

  Nuclear Dipole Moment: [e a0]
     X:   441.3359      Y:  -312.0819      Z:   -11.5974

  Electronic Dipole Moment: [e a0]
     X:  -441.0464      Y:   312.6463      Z:    12.3003

  Dipole Moment: [e a0]
     X:     0.2895      Y:     0.5644      Z:     0.7029     Total:     0.9468

  Dipole Moment: [D]
     X:     0.7358      Y:     1.4345      Z:     1.7866     Total:     2.4065


*** tstop() called on ds1 at Mon Oct  4 14:10:23 2021
Module time:
	user time   =      24.51 seconds =       0.41 minutes
	system time =       0.43 seconds =       0.01 minutes
	total time  =          5 seconds =       0.08 minutes
Total time:
	user time   =      83.88 seconds =       1.40 minutes
	system time =       1.58 seconds =       0.03 minutes
	total time  =         17 seconds =       0.28 minutes
  Constructing Basis Sets for SAPT...

   => Loading Basis Set <=

    Name: (AUG-CC-PVDZ AUX)
    Role: RIFIT
    Keyword: DF_BASIS_SAPT
    atoms 1-2, 10-11 entry N          line   158 file /theoryfs2/ds/csargent/miniconda3/envs/cle/share/psi4/basis/aug-cc-pvdz-ri.gbs 
    atoms 3-6, 12-15 entry H          line    30 file /theoryfs2/ds/csargent/miniconda3/envs/cle/share/psi4/basis/aug-cc-pvdz-ri.gbs 
    atoms 7-9, 16-18 entry C          line   112 file /theoryfs2/ds/csargent/miniconda3/envs/cle/share/psi4/basis/aug-cc-pvdz-ri.gbs 


  //>>>>>>>>>>>>>>>>>>>>>>>>>>>>>>>>>>>//
  //               SAPT0               //
  //<<<<<<<<<<<<<<<<<<<<<<<<<<<<<<<<<<<//


*** tstart() called on ds1
*** at Mon Oct  4 14:10:23 2021

        SAPT0  
    Ed Hohenstein
     6 June 2009

      Orbital Information
  --------------------------
    NSO        =       302
    NMO        =       302
    NRI        =       904
    NOCC A     =        18
    NOCC B     =        18
    FOCC A     =         5
    FOCC B     =         5
    NVIR A     =       284
    NVIR B     =       284

    Elst10,r            =    -0.014875948275 [Eh]
    Exch10              =     0.017424682734 [Eh]
    Exch10 (S^2)        =     0.017227829769 [Eh]

    Iter     Energy [mEh]          dE [mEh]         Residual      Time [s]
       1      -4.72235264       4.722352641      15.106367762             0
       2      -5.62344838       0.901095737       7.918246710             0
       3      -6.16159985       0.538151468       1.733048782             0
       4      -6.13426795      -0.027331891       0.876380605             0
       5      -6.11852634      -0.015741617       0.324287473             0
       6      -6.12542524       0.006898906       0.113804762             0
       7      -6.12605118       0.000625932       0.038998853             0
       8      -6.12568131      -0.000369864       0.012165301             1
       9      -6.12558245      -0.000098856       0.004731657             1
      10      -6.12559678       0.000014327       0.001753348             1
      11      -6.12561235       0.000015566       0.000659861             1
      12      -6.12561141      -0.000000940       0.000206633             1
      13      -6.12560889      -0.000002514       0.000058421             1
      14      -6.12560959       0.000000693       0.000014910             1
      15      -6.12560955      -0.000000034       0.000003502             1
      16      -6.12560953      -0.000000022       0.000001090             2
      17      -6.12560953       0.000000001       0.000000372             2

    CHF Iterations converged


    Iter     Energy [mEh]          dE [mEh]         Residual      Time [s]
       1      -1.49026240       1.490262401       9.390152174             0
       2      -1.52001564       0.029753243       2.857544105             0
       3      -1.64438547       0.124369827       0.812765638             0
       4      -1.64392477      -0.000460700       0.451755286             0
       5      -1.63806164      -0.005863133       0.165314616             0
       6      -1.63780545      -0.000256191       0.060839431             0
       7      -1.63840819       0.000602743       0.019251717             1
       8      -1.63852983       0.000121636       0.004877317             1
       9      -1.63848738      -0.000042448       0.001778572             1
      10      -1.63847431      -0.000013067       0.000462555             1
      11      -1.63847882       0.000004511       0.000155260             1
      12      -1.63847976       0.000000934       0.000043932             1
      13      -1.63847924      -0.000000520       0.000017359             1
      14      -1.63847931       0.000000071       0.000006191             1
      15      -1.63847933       0.000000026       0.000002214             2
      16      -1.63847933      -0.000000006       0.000000721             2

    CHF Iterations converged

    Ind20,r (A<-B)      =    -0.006125609533 [Eh]
    Ind20,r (B<-A)      =    -0.001638479327 [Eh]
    Ind20,r             =    -0.007764088860 [Eh]
    Exch-Ind20,r (A<-B) =     0.004173950599 [Eh]
    Exch-Ind20,r (B<-A) =     0.000715233231 [Eh]
    Exch-Ind20,r        =     0.004889183830 [Eh]
    Disp20              =    -0.007143576413 [Eh]
    Disp20 (SS)         =    -0.003571788206 [Eh]
    Disp20 (OS)         =    -0.003571788206 [Eh]
    Exch-Disp20         =     0.001181574767 [Eh]
    Exch-Disp20 (SS)    =     0.000735111388 [Eh]
    Exch-Disp20 (OS)    =     0.000446463379 [Eh]

    SAPT Results 
  --------------------------------------------------------------------------------------------------------
    Electrostatics                -14.87594828 [mEh]      -9.33479847 [kcal/mol]     -39.05679682 [kJ/mol]
      Elst10,r                    -14.87594828 [mEh]      -9.33479847 [kcal/mol]     -39.05679682 [kJ/mol]

    Exchange                       17.42468273 [mEh]      10.93415349 [kcal/mol]      45.74849821 [kJ/mol]
      Exch10                       17.42468273 [mEh]      10.93415349 [kcal/mol]      45.74849821 [kJ/mol]
      Exch10(S^2)                  17.22782977 [mEh]      10.81062639 [kcal/mol]      45.23166083 [kJ/mol]

    Induction                      -4.81630763 [mEh]      -3.02227867 [kcal/mol]     -12.64521394 [kJ/mol]
      Ind20,r                      -7.76408886 [mEh]      -4.87203931 [kcal/mol]     -20.38461249 [kJ/mol]
      Exch-Ind20,r                  4.88918383 [mEh]       3.06800917 [kcal/mol]      12.83655038 [kJ/mol]
      delta HF,r (2)               -1.94140260 [mEh]      -1.21824852 [kcal/mol]      -5.09715182 [kJ/mol]

    Dispersion                     -5.96200165 [mEh]      -3.74121252 [kcal/mol]     -15.65323316 [kJ/mol]
      Disp20                       -7.14357641 [mEh]      -4.48266188 [kcal/mol]     -18.75545729 [kJ/mol]
      Exch-Disp20                   1.18157477 [mEh]       0.74144936 [kcal/mol]       3.10222412 [kJ/mol]
      Disp20 (SS)                  -3.57178821 [mEh]      -2.24133094 [kcal/mol]      -9.37772864 [kJ/mol]
      Disp20 (OS)                  -3.57178821 [mEh]      -2.24133094 [kcal/mol]      -9.37772864 [kJ/mol]
      Exch-Disp20 (SS)              0.73511139 [mEh]       0.46128936 [kcal/mol]       1.93003468 [kJ/mol]
      Exch-Disp20 (OS)              0.44646338 [mEh]       0.28016000 [kcal/mol]       1.17218944 [kJ/mol]

  Total HF                         -2.26757317 [mEh]      -1.42292365 [kcal/mol]      -5.95351254 [kJ/mol]
  Total SAPT0                      -8.22957482 [mEh]      -5.16413616 [kcal/mol]     -21.60674570 [kJ/mol]

  Special recipe for scaled SAPT0 (see Manual):
    Electrostatics sSAPT0         -14.87594828 [mEh]      -9.33479847 [kcal/mol]     -39.05679682 [kJ/mol]
    Exchange sSAPT0                17.42468273 [mEh]      10.93415349 [kcal/mol]      45.74849821 [kJ/mol]
    Induction sSAPT0               -4.64678721 [mEh]      -2.91590300 [kcal/mol]     -12.20013815 [kJ/mol]
    Dispersion sSAPT0              -5.92103345 [mEh]      -3.71550458 [kcal/mol]     -15.54567118 [kJ/mol]
  Total sSAPT0                     -8.01908621 [mEh]      -5.03205256 [kcal/mol]     -21.05410793 [kJ/mol]
  --------------------------------------------------------------------------------------------------------

*** tstop() called on ds1 at Mon Oct  4 14:10:34 2021
Module time:
	user time   =      54.03 seconds =       0.90 minutes
	system time =       5.05 seconds =       0.08 minutes
	total time  =         11 seconds =       0.18 minutes
Total time:
	user time   =     138.93 seconds =       2.32 minutes
	system time =       6.66 seconds =       0.11 minutes
	total time  =         28 seconds =       0.47 minutes


Warning! sapt0 does not have an associated derived wavefunction.The returned wavefunction is the dimer SCF wavefunction.


    Psi4 stopped on: Monday, 04 October 2021 02:10PM
    Psi4 wall time for execution: 0:00:28.79

*** Psi4 exiting successfully. Buy a developer a beer!
