
    -----------------------------------------------------------------------
          Psi4: An Open-Source Ab Initio Electronic Structure Package
                               Psi4 1.4rc3 

                         Git: Rev {HEAD} 080dba6 


    D. G. A. Smith, L. A. Burns, A. C. Simmonett, R. M. Parrish,
    M. C. Schieber, R. Galvelis, P. Kraus, H. Kruse, R. Di Remigio,
    A. Alenaizan, A. M. James, S. Lehtola, J. P. Misiewicz, M. Scheurer,
    R. A. Shaw, J. B. Schriber, Y. Xie, Z. L. Glick, D. A. Sirianni,
    J. S. O'Brien, J. M. Waldrop, A. Kumar, E. G. Hohenstein,
    B. P. Pritchard, B. R. Brooks, H. F. Schaefer III, A. Yu. Sokolov,
    K. Patkowski, A. E. DePrince III, U. Bozkaya, R. A. King,
    F. A. Evangelista, J. M. Turney, T. D. Crawford, C. D. Sherrill,
    J. Chem. Phys. 152(18) 184108 (2020). https://doi.org/10.1063/5.0006002

                            Additional Code Authors
    E. T. Seidl, C. L. Janssen, E. F. Valeev, M. L. Leininger,
    J. F. Gonthier, R. M. Richard, H. R. McAlexander, M. Saitow, X. Wang,
    P. Verma, and M. H. Lechner

             Previous Authors, Complete List of Code Contributors,
                       and Citations for Specific Modules
    https://github.com/psi4/psi4/blob/master/codemeta.json
    https://github.com/psi4/psi4/graphs/contributors
    http://psicode.org/psi4manual/master/introduction.html#citing-psifour

    -----------------------------------------------------------------------


    Psi4 started on: Monday, 04 October 2021 01:44PM

    Process ID: 8569
    Host:       ds1
    PSIDATADIR: /theoryfs2/ds/csargent/miniconda3/envs/cle/share/psi4
    Memory:     500.0 MiB
    Threads:    6
    
  ==> Input File <==

--------------------------------------------------------------------------
# PSI4 file produced by CrystaLattE

# Generated from:               pyrazole.xyz
# Psithon input for N-mer:      2mer-0+175
# Number of atoms per monomer:  [9, 9]
# Number of replicas:           1
# COM priority:                 3.622818778759e-05
# Minimum COM separations:      15.993 
# Separation priority:          6.084256906081e-05
# Minimum monomer separations:  13.454 
# Cutoff priority:              2.393003818666e-06
# Nuclear repulsion energy:     376.1665388692028

memory 7 GB

molecule Dimer_0_175 {
  N            6.27981210      -4.25303372       0.19313865 
  N            6.06870777      -2.28125697       1.80544317 
  H            3.66871156      -5.64628941      -1.96684001 
  H            0.69034521      -2.37545694      -0.42864236 
  H            3.35917442       0.17650601       3.09265017 
  H            7.35266782      -1.99461311       2.90680702 
  C            3.77952586      -1.21508453       1.76858172 
  C            2.38242998      -2.55505538       0.04607681 
  C            4.01771468      -4.38410490      -0.88761863 
--
  N          -12.67871861     -21.38696250      20.78653078 
  N          -12.55985635     -19.34905546      19.24935707 
  H          -10.00555588     -23.78787247      21.50456114 
  H           -7.11091932     -21.34533372      18.74942363 
  H          -10.04734339     -17.63228471      16.84478732 
  H          -14.02226457     -18.53907841      18.86359174 
  C          -10.27701995     -19.01887980      18.22030822 
  C           -8.79402751     -20.94855201      19.11023069 
  C          -10.35533284     -22.33371982      20.70192863 
units = au
no_com
no_reorient
}

set {
  e_convergence 10
  d_convergence 10
  scf_type df
  mp2_type df
  cc_type df
  freeze_core true
}

energy('sapt0/aug-cc-pvdz')

--------------------------------------------------------------------------

  Memory set to   6.519 GiB by Python driver.

Scratch directory: /scratch/csargent/psi4.7158.66302/

Scratch directory: /scratch/csargent/psi4.7158.66302/

  //>>>>>>>>>>>>>>>>>>>>>>>>>>>>>>>>>>>//
  //              Dimer HF             //
  //<<<<<<<<<<<<<<<<<<<<<<<<<<<<<<<<<<<//


*** tstart() called on ds1
*** at Mon Oct  4 13:44:12 2021

   => Loading Basis Set <=

    Name: AUG-CC-PVDZ
    Role: ORBITAL
    Keyword: BASIS
    atoms 1-2, 10-11 entry N          line   218 file /theoryfs2/ds/csargent/miniconda3/envs/cle/share/psi4/basis/aug-cc-pvdz.gbs 
    atoms 3-6, 12-15 entry H          line    40 file /theoryfs2/ds/csargent/miniconda3/envs/cle/share/psi4/basis/aug-cc-pvdz.gbs 
    atoms 7-9, 16-18 entry C          line   182 file /theoryfs2/ds/csargent/miniconda3/envs/cle/share/psi4/basis/aug-cc-pvdz.gbs 


         ---------------------------------------------------------
                                   SCF
               by Justin Turney, Rob Parrish, Andy Simmonett
                          and Daniel G. A. Smith
                              RHF Reference
                        6 Threads,   6675 MiB Core
         ---------------------------------------------------------

  ==> Geometry <==

    Molecular point group: c1
    Full point group: C1

    Geometry (in Bohr), charge = 0, multiplicity = 1:

       Center              X                  Y                   Z               Mass       
    ------------   -----------------  -----------------  -----------------  -----------------
         N            6.279812100000    -4.253033720000     0.193138650000    14.003074004430
         N            6.068707770000    -2.281256970000     1.805443170000    14.003074004430
         H            3.668711560000    -5.646289410000    -1.966840010000     1.007825032230
         H            0.690345210000    -2.375456940000    -0.428642360000     1.007825032230
         H            3.359174420000     0.176506010000     3.092650170000     1.007825032230
         H            7.352667820000    -1.994613110000     2.906807020000     1.007825032230
         C            3.779525860000    -1.215084530000     1.768581720000    12.000000000000
         C            2.382429980000    -2.555055380000     0.046076810000    12.000000000000
         C            4.017714680000    -4.384104900000    -0.887618630000    12.000000000000
         N          -12.678718610000   -21.386962500000    20.786530780000    14.003074004430
         N          -12.559856350000   -19.349055460000    19.249357070000    14.003074004430
         H          -10.005555880000   -23.787872470000    21.504561140000     1.007825032230
         H           -7.110919320000   -21.345333720000    18.749423630000     1.007825032230
         H          -10.047343390000   -17.632284710000    16.844787320000     1.007825032230
         H          -14.022264570000   -18.539078410000    18.863591740000     1.007825032230
         C          -10.277019950000   -19.018879800000    18.220308220000    12.000000000000
         C           -8.794027510000   -20.948552010000    19.110230690000    12.000000000000
         C          -10.355332840000   -22.333719820000    20.701928630000    12.000000000000

  Running in c1 symmetry.

  Rotational constants: A =      0.02377  B =      0.00095  C =      0.00092 [cm^-1]
  Rotational constants: A =    712.47106  B =     28.38768  C =     27.44991 [MHz]
  Nuclear repulsion =  376.166538951897508

  Charge       = 0
  Multiplicity = 1
  Electrons    = 72
  Nalpha       = 36
  Nbeta        = 36

  ==> Algorithm <==

  SCF Algorithm Type is DF.
  DIIS enabled.
  MOM disabled.
  Fractional occupation disabled.
  Guess Type is SAD.
  Energy threshold   = 1.00e-10
  Density threshold  = 1.00e-10
  Integral threshold = 1.00e-12

  ==> Primary Basis <==

  Basis Set: AUG-CC-PVDZ
    Blend: AUG-CC-PVDZ
    Number of shells: 130
    Number of basis functions: 302
    Number of Cartesian functions: 322
    Spherical Harmonics?: true
    Max angular momentum: 2

   => Loading Basis Set <=

    Name: (AUG-CC-PVDZ AUX)
    Role: JKFIT
    Keyword: DF_BASIS_SCF
    atoms 1-2, 10-11 entry N          line   212 file /theoryfs2/ds/csargent/miniconda3/envs/cle/share/psi4/basis/aug-cc-pvdz-jkfit.gbs 
    atoms 3-6, 12-15 entry H          line    70 file /theoryfs2/ds/csargent/miniconda3/envs/cle/share/psi4/basis/aug-cc-pvdz-jkfit.gbs 
    atoms 7-9, 16-18 entry C          line   154 file /theoryfs2/ds/csargent/miniconda3/envs/cle/share/psi4/basis/aug-cc-pvdz-jkfit.gbs 

  ==> Integral Setup <==

  ==> DiskDFJK: Density-Fitted J/K Matrices <==

    J tasked:                  Yes
    K tasked:                  Yes
    wK tasked:                  No
    OpenMP threads:              6
    Integrals threads:           6
    Memory [MiB]:             5006
    Algorithm:                Core
    Integral Cache:           SAVE
    Schwarz Cutoff:          1E-12
    Fitting Condition:       1E-10

   => Auxiliary Basis Set <=

  Basis Set: (AUG-CC-PVDZ AUX)
    Blend: AUG-CC-PVDZ-JKFIT
    Number of shells: 376
    Number of basis functions: 1116
    Number of Cartesian functions: 1290
    Spherical Harmonics?: true
    Max angular momentum: 3

  Minimum eigenvalue in the overlap matrix is 3.0324283794E-05.
  Reciprocal condition number of the overlap matrix is 2.4867041665E-06.
    Using symmetric orthogonalization.

  ==> Pre-Iterations <==

  SCF Guess: Superposition of Atomic Densities via on-the-fly atomic UHF (no occupation information).

   -------------------------
    Irrep   Nso     Nmo    
   -------------------------
     A        302     302 
   -------------------------
    Total     302     302
   -------------------------

  ==> Iterations <==

                           Total Energy        Delta E     RMS |[F,P]|

   @DF-RHF iter SAD:  -449.44445657443913   -4.49444e+02   0.00000e+00 
   @DF-RHF iter   1:  -449.27106496972067    1.73392e-01   2.12805e-03 DIIS
   @DF-RHF iter   2:  -449.47979417664044   -2.08729e-01   9.73542e-04 DIIS
   @DF-RHF iter   3:  -449.52160416526726   -4.18100e-02   2.10084e-04 DIIS
   @DF-RHF iter   4:  -449.52437164139923   -2.76748e-03   8.55019e-05 DIIS
   @DF-RHF iter   5:  -449.52472755594727   -3.55915e-04   1.69475e-05 DIIS
   @DF-RHF iter   6:  -449.52476143546005   -3.38795e-05   7.01793e-06 DIIS
   @DF-RHF iter   7:  -449.52476934127247   -7.90581e-06   3.08142e-06 DIIS
   @DF-RHF iter   8:  -449.52477085472191   -1.51345e-06   1.43701e-06 DIIS
   @DF-RHF iter   9:  -449.52477118846332   -3.33741e-07   3.99809e-07 DIIS
   @DF-RHF iter  10:  -449.52477120600855   -1.75452e-08   1.21097e-07 DIIS
   @DF-RHF iter  11:  -449.52477120738774   -1.37919e-09   2.82542e-08 DIIS
   @DF-RHF iter  12:  -449.52477120748040   -9.26548e-11   8.22006e-09 DIIS
   @DF-RHF iter  13:  -449.52477120748898   -8.58336e-12   4.01184e-09 DIIS
   @DF-RHF iter  14:  -449.52477120749046   -1.47793e-12   1.38557e-09 DIIS
   @DF-RHF iter  15:  -449.52477120749080   -3.41061e-13   5.89230e-10 DIIS
   @DF-RHF iter  16:  -449.52477120749086   -5.68434e-14   1.79241e-10 DIIS
   @DF-RHF iter  17:  -449.52477120749120   -3.41061e-13   6.45710e-11 DIIS
  Energy and wave function converged.


  ==> Post-Iterations <==

    Orbital Energies [Eh]
    ---------------------

    Doubly Occupied:                                                      

       1A    -15.637172     2A    -15.636301     3A    -15.593264  
       4A    -15.592351     5A    -11.280860     6A    -11.279960  
       7A    -11.238742     8A    -11.237810     9A    -11.210870  
      10A    -11.209929    11A     -1.387872    12A     -1.387066  
      13A     -1.122852    14A     -1.121957    15A     -1.067866  
      16A     -1.066980    17A     -0.873725    18A     -0.872816  
      19A     -0.838025    20A     -0.837090    21A     -0.758258  
      22A     -0.757329    23A     -0.646705    24A     -0.645800  
      25A     -0.621803    26A     -0.620875    27A     -0.610091  
      28A     -0.609243    29A     -0.584886    30A     -0.583960  
      31A     -0.462347    32A     -0.461474    33A     -0.371678  
      34A     -0.370772    35A     -0.347013    36A     -0.346110  

    Virtual:                                                              

      37A      0.029806    38A      0.030665    39A      0.041312  
      40A      0.042420    41A      0.048249    42A      0.049119  
      43A      0.062595    44A      0.063500    45A      0.100001  
      46A      0.100903    47A      0.103124    48A      0.103969  
      49A      0.116160    50A      0.117159    51A      0.125308  
      52A      0.126197    53A      0.132133    54A      0.132999  
      55A      0.137377    56A      0.138389    57A      0.140468  
      58A      0.141497    59A      0.155840    60A      0.156937  
      61A      0.163565    62A      0.164645    63A      0.170125  
      64A      0.171004    65A      0.177464    66A      0.178371  
      67A      0.195161    68A      0.195947    69A      0.203846  
      70A      0.204735    71A      0.205244    72A      0.206080  
      73A      0.239259    74A      0.240206    75A      0.242685  
      76A      0.243553    77A      0.244050    78A      0.244913  
      79A      0.270180    80A      0.271078    81A      0.278173  
      82A      0.278981    83A      0.300106    84A      0.300979  
      85A      0.324193    86A      0.325063    87A      0.351407  
      88A      0.352284    89A      0.354392    90A      0.355332  
      91A      0.373913    92A      0.374862    93A      0.395085  
      94A      0.396019    95A      0.401790    96A      0.402679  
      97A      0.413962    98A      0.415055    99A      0.431196  
     100A      0.432070   101A      0.442455   102A      0.443322  
     103A      0.452459   104A      0.453346   105A      0.458833  
     106A      0.459767   107A      0.477695   108A      0.478593  
     109A      0.497575   110A      0.498503   111A      0.507734  
     112A      0.508643   113A      0.520954   114A      0.521902  
     115A      0.540549   116A      0.541560   117A      0.573487  
     118A      0.574364   119A      0.585338   120A      0.586274  
     121A      0.589567   122A      0.590498   123A      0.601450  
     124A      0.602367   125A      0.619985   126A      0.620922  
     127A      0.645138   128A      0.646063   129A      0.654319  
     130A      0.655274   131A      0.675186   132A      0.676122  
     133A      0.697082   134A      0.697989   135A      0.699429  
     136A      0.700335   137A      0.720719   138A      0.721582  
     139A      0.724144   140A      0.725079   141A      0.746743  
     142A      0.747665   143A      0.757631   144A      0.758598  
     145A      0.772344   146A      0.773252   147A      0.780523  
     148A      0.781409   149A      0.827562   150A      0.828455  
     151A      0.837272   152A      0.838185   153A      0.847440  
     154A      0.848331   155A      0.880436   156A      0.881352  
     157A      0.887791   158A      0.888713   159A      0.905988  
     160A      0.906899   161A      0.923870   162A      0.924740  
     163A      0.941620   164A      0.942544   165A      0.977236  
     166A      0.978162   167A      0.983891   168A      0.984799  
     169A      1.010213   170A      1.011107   171A      1.045680  
     172A      1.046550   173A      1.065541   174A      1.066450  
     175A      1.099910   176A      1.100781   177A      1.127095  
     178A      1.128058   179A      1.133241   180A      1.134094  
     181A      1.149254   182A      1.150194   183A      1.174208  
     184A      1.175120   185A      1.219602   186A      1.220479  
     187A      1.268598   188A      1.269523   189A      1.302395  
     190A      1.303327   191A      1.310450   192A      1.311368  
     193A      1.364859   194A      1.365746   195A      1.400076  
     196A      1.400994   197A      1.473755   198A      1.474635  
     199A      1.511070   200A      1.511956   201A      1.525162  
     202A      1.526084   203A      1.560030   204A      1.560921  
     205A      1.589907   206A      1.590839   207A      1.607698  
     208A      1.608631   209A      1.636446   210A      1.637400  
     211A      1.668498   212A      1.669449   213A      1.702667  
     214A      1.703582   215A      1.722984   216A      1.723900  
     217A      1.748251   218A      1.749199   219A      1.763411  
     220A      1.764311   221A      1.804088   222A      1.804969  
     223A      1.874666   224A      1.875534   225A      1.931431  
     226A      1.932351   227A      1.942574   228A      1.943522  
     229A      1.987100   230A      1.988094   231A      2.020488  
     232A      2.021397   233A      2.056646   234A      2.057611  
     235A      2.087881   236A      2.088750   237A      2.143727  
     238A      2.144652   239A      2.189040   240A      2.189945  
     241A      2.199859   242A      2.200781   243A      2.229501  
     244A      2.230397   245A      2.274855   246A      2.275790  
     247A      2.306683   248A      2.307578   249A      2.359752  
     250A      2.360594   251A      2.388175   252A      2.389062  
     253A      2.392888   254A      2.393678   255A      2.434302  
     256A      2.435129   257A      2.464027   258A      2.464867  
     259A      2.530839   260A      2.531729   261A      2.569273  
     262A      2.570139   263A      2.583774   264A      2.584748  
     265A      2.642007   266A      2.642898   267A      2.732074  
     268A      2.732949   269A      2.825883   270A      2.826752  
     271A      2.833795   272A      2.834652   273A      2.900637  
     274A      2.901478   275A      2.917652   276A      2.918493  
     277A      2.998196   278A      2.999141   279A      3.054371  
     280A      3.055248   281A      3.091412   282A      3.092376  
     283A      3.121773   284A      3.122645   285A      3.187974  
     286A      3.188959   287A      3.221046   288A      3.221979  
     289A      3.296916   290A      3.297855   291A      3.379262  
     292A      3.380174   293A      3.519778   294A      3.520702  
     295A      3.685600   296A      3.686245   297A      3.888384  
     298A      3.889182   299A      4.208481   300A      4.209251  
     301A      4.462263   302A      4.462987  

    Final Occupation by Irrep:
              A 
    DOCC [    36 ]

  @DF-RHF Final Energy:  -449.52477120749120

   => Energetics <=

    Nuclear Repulsion Energy =            376.1665389518975076
    One-Electron Energy =               -1352.7989198547384149
    Two-Electron Energy =                 527.1076096953496517
    Total Energy =                       -449.5247712074911988

Computation Completed


Properties will be evaluated at   0.000000,   0.000000,   0.000000 [a0]

Properties computed using the SCF density matrix

  Nuclear Dipole Moment: [e a0]
     X:  -231.8258      Y:  -844.7690      Z:   727.5647

  Electronic Dipole Moment: [e a0]
     X:   231.7167      Y:   845.9646      Z:  -727.6896

  Dipole Moment: [e a0]
     X:    -0.1092      Y:     1.1957      Z:    -0.1249     Total:     1.2071

  Dipole Moment: [D]
     X:    -0.2775      Y:     3.0390      Z:    -0.3175     Total:     3.0682


*** tstop() called on ds1 at Mon Oct  4 13:44:17 2021
Module time:
	user time   =      23.19 seconds =       0.39 minutes
	system time =       0.60 seconds =       0.01 minutes
	total time  =          5 seconds =       0.08 minutes
Total time:
	user time   =      23.19 seconds =       0.39 minutes
	system time =       0.60 seconds =       0.01 minutes
	total time  =          5 seconds =       0.08 minutes

  //>>>>>>>>>>>>>>>>>>>>>>>>>>>>>>>>>>>//
  //            Monomer A HF           //
  //<<<<<<<<<<<<<<<<<<<<<<<<<<<<<<<<<<<//


*** tstart() called on ds1
*** at Mon Oct  4 13:44:17 2021

   => Loading Basis Set <=

    Name: AUG-CC-PVDZ
    Role: ORBITAL
    Keyword: BASIS
    atoms 1-2, 10-11 entry N          line   218 file /theoryfs2/ds/csargent/miniconda3/envs/cle/share/psi4/basis/aug-cc-pvdz.gbs 
    atoms 3-6, 12-15 entry H          line    40 file /theoryfs2/ds/csargent/miniconda3/envs/cle/share/psi4/basis/aug-cc-pvdz.gbs 
    atoms 7-9, 16-18 entry C          line   182 file /theoryfs2/ds/csargent/miniconda3/envs/cle/share/psi4/basis/aug-cc-pvdz.gbs 


         ---------------------------------------------------------
                                   SCF
               by Justin Turney, Rob Parrish, Andy Simmonett
                          and Daniel G. A. Smith
                              RHF Reference
                        6 Threads,   6675 MiB Core
         ---------------------------------------------------------

  ==> Geometry <==

    Molecular point group: c1
    Full point group: C1

    Geometry (in Bohr), charge = 0, multiplicity = 1:

       Center              X                  Y                   Z               Mass       
    ------------   -----------------  -----------------  -----------------  -----------------
         N            6.279812100000    -4.253033720000     0.193138650000    14.003074004430
         N            6.068707770000    -2.281256970000     1.805443170000    14.003074004430
         H            3.668711560000    -5.646289410000    -1.966840010000     1.007825032230
         H            0.690345210000    -2.375456940000    -0.428642360000     1.007825032230
         H            3.359174420000     0.176506010000     3.092650170000     1.007825032230
         H            7.352667820000    -1.994613110000     2.906807020000     1.007825032230
         C            3.779525860000    -1.215084530000     1.768581720000    12.000000000000
         C            2.382429980000    -2.555055380000     0.046076810000    12.000000000000
         C            4.017714680000    -4.384104900000    -0.887618630000    12.000000000000
      Gh(N)         -12.678718610000   -21.386962500000    20.786530780000    14.003074004430
      Gh(N)         -12.559856350000   -19.349055460000    19.249357070000    14.003074004430
      Gh(H)         -10.005555880000   -23.787872470000    21.504561140000     1.007825032230
      Gh(H)          -7.110919320000   -21.345333720000    18.749423630000     1.007825032230
      Gh(H)         -10.047343390000   -17.632284710000    16.844787320000     1.007825032230
      Gh(H)         -14.022264570000   -18.539078410000    18.863591740000     1.007825032230
      Gh(C)         -10.277019950000   -19.018879800000    18.220308220000    12.000000000000
      Gh(C)          -8.794027510000   -20.948552010000    19.110230690000    12.000000000000
      Gh(C)         -10.355332840000   -22.333719820000    20.701928630000    12.000000000000

  Running in c1 symmetry.

  Rotational constants: A =      0.02377  B =      0.00095  C =      0.00092 [cm^-1]
  Rotational constants: A =    712.47106  B =     28.38768  C =     27.44991 [MHz]
  Nuclear repulsion =  166.624056450327203

  Charge       = 0
  Multiplicity = 1
  Electrons    = 36
  Nalpha       = 18
  Nbeta        = 18

  ==> Algorithm <==

  SCF Algorithm Type is DF.
  DIIS enabled.
  MOM disabled.
  Fractional occupation disabled.
  Guess Type is SAD.
  Energy threshold   = 1.00e-10
  Density threshold  = 1.00e-10
  Integral threshold = 1.00e-12

  ==> Primary Basis <==

  Basis Set: AUG-CC-PVDZ
    Blend: AUG-CC-PVDZ
    Number of shells: 130
    Number of basis functions: 302
    Number of Cartesian functions: 322
    Spherical Harmonics?: true
    Max angular momentum: 2

   => Loading Basis Set <=

    Name: (AUG-CC-PVDZ AUX)
    Role: JKFIT
    Keyword: DF_BASIS_SCF
    atoms 1-2, 10-11 entry N          line   212 file /theoryfs2/ds/csargent/miniconda3/envs/cle/share/psi4/basis/aug-cc-pvdz-jkfit.gbs 
    atoms 3-6, 12-15 entry H          line    70 file /theoryfs2/ds/csargent/miniconda3/envs/cle/share/psi4/basis/aug-cc-pvdz-jkfit.gbs 
    atoms 7-9, 16-18 entry C          line   154 file /theoryfs2/ds/csargent/miniconda3/envs/cle/share/psi4/basis/aug-cc-pvdz-jkfit.gbs 

  ==> Integral Setup <==

  ==> DiskDFJK: Density-Fitted J/K Matrices <==

    J tasked:                  Yes
    K tasked:                  Yes
    wK tasked:                  No
    OpenMP threads:              6
    Integrals threads:           6
    Memory [MiB]:             5006
    Algorithm:                Core
    Integral Cache:           LOAD
    Schwarz Cutoff:          1E-12
    Fitting Condition:       1E-10

   => Auxiliary Basis Set <=

  Basis Set: (AUG-CC-PVDZ AUX)
    Blend: AUG-CC-PVDZ-JKFIT
    Number of shells: 376
    Number of basis functions: 1116
    Number of Cartesian functions: 1290
    Spherical Harmonics?: true
    Max angular momentum: 3

  Minimum eigenvalue in the overlap matrix is 3.0324283794E-05.
  Reciprocal condition number of the overlap matrix is 2.4867041665E-06.
    Using symmetric orthogonalization.

  ==> Pre-Iterations <==

  SCF Guess: Superposition of Atomic Densities via on-the-fly atomic UHF (no occupation information).

   -------------------------
    Irrep   Nso     Nmo    
   -------------------------
     A        302     302 
   -------------------------
    Total     302     302
   -------------------------

  ==> Iterations <==

                           Total Energy        Delta E     RMS |[F,P]|

   @DF-RHF iter SAD:  -224.72194801522275   -2.24722e+02   0.00000e+00 
   @DF-RHF iter   1:  -224.63549170241845    8.64563e-02   1.50472e-03 DIIS
   @DF-RHF iter   2:  -224.73984613584645   -1.04354e-01   6.88462e-04 DIIS
   @DF-RHF iter   3:  -224.76075487518659   -2.09087e-02   1.48626e-04 DIIS
   @DF-RHF iter   4:  -224.76213931894904   -1.38444e-03   6.05310e-05 DIIS
   @DF-RHF iter   5:  -224.76231767370277   -1.78355e-04   1.19893e-05 DIIS
   @DF-RHF iter   6:  -224.76233463117478   -1.69575e-05   4.96772e-06 DIIS
   @DF-RHF iter   7:  -224.76233858721162   -3.95604e-06   2.18806e-06 DIIS
   @DF-RHF iter   8:  -224.76233934795405   -7.60742e-07   1.01700e-06 DIIS
   @DF-RHF iter   9:  -224.76233951559595   -1.67642e-07   2.83302e-07 DIIS
   @DF-RHF iter  10:  -224.76233952441632   -8.82036e-09   8.55547e-08 DIIS
   @DF-RHF iter  11:  -224.76233952510620   -6.89880e-10   1.99714e-08 DIIS
   @DF-RHF iter  12:  -224.76233952515210   -4.59011e-11   5.81092e-09 DIIS
   @DF-RHF iter  13:  -224.76233952515653   -4.43379e-12   2.83097e-09 DIIS
   @DF-RHF iter  14:  -224.76233952515716   -6.25278e-13   9.75191e-10 DIIS
   @DF-RHF iter  15:  -224.76233952515753   -3.69482e-13   4.15548e-10 DIIS
   @DF-RHF iter  16:  -224.76233952515753    0.00000e+00   1.25998e-10 DIIS
   @DF-RHF iter  17:  -224.76233952515753    0.00000e+00   4.47778e-11 DIIS
  Energy and wave function converged.


  ==> Post-Iterations <==

    Orbital Energies [Eh]
    ---------------------

    Doubly Occupied:                                                      

       1A    -15.636223     2A    -15.592313     3A    -11.279894  
       4A    -11.237784     5A    -11.209891     6A     -1.386922  
       7A     -1.121901     8A     -1.066898     9A     -0.872768  
      10A     -0.837061    11A     -0.757292    12A     -0.645746  
      13A     -0.620834    14A     -0.609140    15A     -0.583920  
      16A     -0.461404    17A     -0.370721    18A     -0.346048  

    Virtual:                                                              

      19A      0.022662    20A      0.030760    21A      0.039964  
      22A      0.042377    23A      0.044180    24A      0.049159  
      25A      0.063517    26A      0.065857    27A      0.083942  
      28A      0.090712    29A      0.098950    30A      0.100998  
      31A      0.104029    32A      0.117177    33A      0.118311  
      34A      0.125846    35A      0.126272    36A      0.128258  
      37A      0.133067    38A      0.133336    39A      0.134159  
      40A      0.138405    41A      0.141490    42A      0.156893  
      43A      0.158589    44A      0.164590    45A      0.165937  
      46A      0.171075    47A      0.178403    48A      0.179189  
      49A      0.195451    50A      0.196041    51A      0.201443  
      52A      0.204793    53A      0.206162    54A      0.222898  
      55A      0.225121    56A      0.228238    57A      0.235539  
      58A      0.240237    59A      0.243626    60A      0.244966  
      61A      0.264074    62A      0.270954    63A      0.271127  
      64A      0.279080    65A      0.301010    66A      0.321913  
      67A      0.325148    68A      0.340079    69A      0.352358  
      70A      0.355357    71A      0.366518    72A      0.372909  
      73A      0.374907    74A      0.383725    75A      0.396063  
      76A      0.402741    77A      0.415004    78A      0.427469  
      79A      0.432049    80A      0.432152    81A      0.441216  
      82A      0.442348    83A      0.443386    84A      0.453393  
      85A      0.455992    86A      0.457425    87A      0.459816  
      88A      0.461852    89A      0.478656    90A      0.498543  
      91A      0.508690    92A      0.509711    93A      0.519381  
      94A      0.521920    95A      0.533094    96A      0.538066  
      97A      0.541566    98A      0.559333    99A      0.568774  
     100A      0.571859   101A      0.574433   102A      0.586318  
     103A      0.590538   104A      0.595160   105A      0.602413  
     106A      0.613397   107A      0.620953   108A      0.621254  
     109A      0.633531   110A      0.646110   111A      0.655295  
     112A      0.676161   113A      0.690827   114A      0.698041  
     115A      0.700391   116A      0.707788   117A      0.719470  
     118A      0.721667   119A      0.725116   120A      0.735687  
     121A      0.745395   122A      0.747709   123A      0.758593  
     124A      0.773318   125A      0.781481   126A      0.789708  
     127A      0.798101   128A      0.814456   129A      0.820955  
     130A      0.828504   131A      0.838230   132A      0.848394  
     133A      0.851980   134A      0.855109   135A      0.871038  
     136A      0.881116   137A      0.881397   138A      0.888767  
     139A      0.895711   140A      0.906950   141A      0.916156  
     142A      0.924815   143A      0.942583   144A      0.952124  
     145A      0.978222   146A      0.984850   147A      0.997211  
     148A      1.011149   149A      1.024221   150A      1.030254  
     151A      1.046606   152A      1.051662   153A      1.066503  
     154A      1.071185   155A      1.081071   156A      1.100853  
     157A      1.108253   158A      1.128058   159A      1.134196  
     160A      1.150235   161A      1.158848   162A      1.166370  
     163A      1.175168   164A      1.185059   165A      1.220548  
     166A      1.221786   167A      1.237121   168A      1.268054  
     169A      1.269558   170A      1.293812   171A      1.303342  
     172A      1.311399   173A      1.315244   174A      1.340768  
     175A      1.365808   176A      1.381937   177A      1.401044  
     178A      1.435080   179A      1.444832   180A      1.474691  
     181A      1.493290   182A      1.507142   183A      1.512027  
     184A      1.526129   185A      1.560989   186A      1.590883  
     187A      1.608669   188A      1.637439   189A      1.669472  
     190A      1.676804   191A      1.688971   192A      1.703634  
     193A      1.723950   194A      1.749215   195A      1.764374  
     196A      1.805048   197A      1.875633   198A      1.932391  
     199A      1.943558   200A      1.988067   201A      2.021445  
     202A      2.041209   203A      2.057611   204A      2.088839  
     205A      2.109196   206A      2.134925   207A      2.144687  
     208A      2.168274   209A      2.190005   210A      2.200827  
     211A      2.216743   212A      2.230457   213A      2.233999  
     214A      2.261999   215A      2.275825   216A      2.277863  
     217A      2.289394   218A      2.307640   219A      2.335760  
     220A      2.360716   221A      2.380735   222A      2.389130  
     223A      2.393822   224A      2.394662   225A      2.435246  
     226A      2.443995   227A      2.464967   228A      2.478430  
     229A      2.500092   230A      2.513745   231A      2.531798  
     232A      2.548962   233A      2.570232   234A      2.584716  
     235A      2.631457   236A      2.642961   237A      2.667645  
     238A      2.703138   239A      2.719011   240A      2.733029  
     241A      2.826837   242A      2.828076   243A      2.834751  
     244A      2.869916   245A      2.890148   246A      2.901587  
     247A      2.918598   248A      2.945220   249A      2.999158  
     250A      3.028109   251A      3.055324   252A      3.089865  
     253A      3.092358   254A      3.122730   255A      3.140183  
     256A      3.182007   257A      3.188931   258A      3.222008  
     259A      3.254278   260A      3.289246   261A      3.297865  
     262A      3.355773   263A      3.380236   264A      3.395748  
     265A      3.423507   266A      3.448347   267A      3.487333  
     268A      3.497699   269A      3.520728   270A      3.633747  
     271A      3.667085   272A      3.686563   273A      3.735761  
     274A      3.770240   275A      3.851243   276A      3.889327  
     277A      3.964682   278A      4.035750   279A      4.094889  
     280A      4.209428   281A      4.244202   282A      4.448383  
     283A      4.463236   284A      4.658604   285A      4.708280  
     286A      4.750084   287A      4.810962   288A      4.994987  
     289A      5.076841   290A      5.241379   291A      5.531609  
     292A      5.669146   293A      5.826780   294A      6.107160  
     295A      6.318361   296A      6.707730   297A      6.967624  
     298A     18.111336   299A     18.648208   300A     19.373847  
     301A     25.245563   302A     25.705442  

    Final Occupation by Irrep:
              A 
    DOCC [    18 ]

  @DF-RHF Final Energy:  -224.76233952515753

   => Energetics <=

    Nuclear Repulsion Energy =            166.6240564503272026
    One-Electron Energy =                -633.4992734106751868
    Two-Electron Energy =                 242.1128774351904553
    Total Energy =                       -224.7623395251575289

Computation Completed


Properties will be evaluated at   0.000000,   0.000000,   0.000000 [a0]

Properties computed using the SCF density matrix

  Nuclear Dipole Moment: [e a0]
     X:   162.5886      Y:  -104.5054      Z:    23.1563

  Electronic Dipole Moment: [e a0]
     X:  -162.9913      Y:   105.1370      Z:   -22.5767

  Dipole Moment: [e a0]
     X:    -0.4027      Y:     0.6317      Z:     0.5796     Total:     0.9472

  Dipole Moment: [D]
     X:    -1.0235      Y:     1.6055      Z:     1.4733     Total:     2.4075


*** tstop() called on ds1 at Mon Oct  4 13:44:20 2021
Module time:
	user time   =      16.54 seconds =       0.28 minutes
	system time =       0.34 seconds =       0.01 minutes
	total time  =          3 seconds =       0.05 minutes
Total time:
	user time   =      39.93 seconds =       0.67 minutes
	system time =       0.95 seconds =       0.02 minutes
	total time  =          8 seconds =       0.13 minutes

  //>>>>>>>>>>>>>>>>>>>>>>>>>>>>>>>>>>>//
  //            Monomer B HF           //
  //<<<<<<<<<<<<<<<<<<<<<<<<<<<<<<<<<<<//


*** tstart() called on ds1
*** at Mon Oct  4 13:44:20 2021

   => Loading Basis Set <=

    Name: AUG-CC-PVDZ
    Role: ORBITAL
    Keyword: BASIS
    atoms 1-2, 10-11 entry N          line   218 file /theoryfs2/ds/csargent/miniconda3/envs/cle/share/psi4/basis/aug-cc-pvdz.gbs 
    atoms 3-6, 12-15 entry H          line    40 file /theoryfs2/ds/csargent/miniconda3/envs/cle/share/psi4/basis/aug-cc-pvdz.gbs 
    atoms 7-9, 16-18 entry C          line   182 file /theoryfs2/ds/csargent/miniconda3/envs/cle/share/psi4/basis/aug-cc-pvdz.gbs 


         ---------------------------------------------------------
                                   SCF
               by Justin Turney, Rob Parrish, Andy Simmonett
                          and Daniel G. A. Smith
                              RHF Reference
                        6 Threads,   6675 MiB Core
         ---------------------------------------------------------

  ==> Geometry <==

    Molecular point group: c1
    Full point group: C1

    Geometry (in Bohr), charge = 0, multiplicity = 1:

       Center              X                  Y                   Z               Mass       
    ------------   -----------------  -----------------  -----------------  -----------------
      Gh(N)           6.279812100000    -4.253033720000     0.193138650000    14.003074004430
      Gh(N)           6.068707770000    -2.281256970000     1.805443170000    14.003074004430
      Gh(H)           3.668711560000    -5.646289410000    -1.966840010000     1.007825032230
      Gh(H)           0.690345210000    -2.375456940000    -0.428642360000     1.007825032230
      Gh(H)           3.359174420000     0.176506010000     3.092650170000     1.007825032230
      Gh(H)           7.352667820000    -1.994613110000     2.906807020000     1.007825032230
      Gh(C)           3.779525860000    -1.215084530000     1.768581720000    12.000000000000
      Gh(C)           2.382429980000    -2.555055380000     0.046076810000    12.000000000000
      Gh(C)           4.017714680000    -4.384104900000    -0.887618630000    12.000000000000
         N          -12.678718610000   -21.386962500000    20.786530780000    14.003074004430
         N          -12.559856350000   -19.349055460000    19.249357070000    14.003074004430
         H          -10.005555880000   -23.787872470000    21.504561140000     1.007825032230
         H           -7.110919320000   -21.345333720000    18.749423630000     1.007825032230
         H          -10.047343390000   -17.632284710000    16.844787320000     1.007825032230
         H          -14.022264570000   -18.539078410000    18.863591740000     1.007825032230
         C          -10.277019950000   -19.018879800000    18.220308220000    12.000000000000
         C           -8.794027510000   -20.948552010000    19.110230690000    12.000000000000
         C          -10.355332840000   -22.333719820000    20.701928630000    12.000000000000

  Running in c1 symmetry.

  Rotational constants: A =      0.02377  B =      0.00095  C =      0.00092 [cm^-1]
  Rotational constants: A =    712.47106  B =     28.38768  C =     27.44991 [MHz]
  Nuclear repulsion =  166.628602894713453

  Charge       = 0
  Multiplicity = 1
  Electrons    = 36
  Nalpha       = 18
  Nbeta        = 18

  ==> Algorithm <==

  SCF Algorithm Type is DF.
  DIIS enabled.
  MOM disabled.
  Fractional occupation disabled.
  Guess Type is SAD.
  Energy threshold   = 1.00e-10
  Density threshold  = 1.00e-10
  Integral threshold = 1.00e-12

  ==> Primary Basis <==

  Basis Set: AUG-CC-PVDZ
    Blend: AUG-CC-PVDZ
    Number of shells: 130
    Number of basis functions: 302
    Number of Cartesian functions: 322
    Spherical Harmonics?: true
    Max angular momentum: 2

   => Loading Basis Set <=

    Name: (AUG-CC-PVDZ AUX)
    Role: JKFIT
    Keyword: DF_BASIS_SCF
    atoms 1-2, 10-11 entry N          line   212 file /theoryfs2/ds/csargent/miniconda3/envs/cle/share/psi4/basis/aug-cc-pvdz-jkfit.gbs 
    atoms 3-6, 12-15 entry H          line    70 file /theoryfs2/ds/csargent/miniconda3/envs/cle/share/psi4/basis/aug-cc-pvdz-jkfit.gbs 
    atoms 7-9, 16-18 entry C          line   154 file /theoryfs2/ds/csargent/miniconda3/envs/cle/share/psi4/basis/aug-cc-pvdz-jkfit.gbs 

  ==> Integral Setup <==

  ==> DiskDFJK: Density-Fitted J/K Matrices <==

    J tasked:                  Yes
    K tasked:                  Yes
    wK tasked:                  No
    OpenMP threads:              6
    Integrals threads:           6
    Memory [MiB]:             5006
    Algorithm:                Core
    Integral Cache:           LOAD
    Schwarz Cutoff:          1E-12
    Fitting Condition:       1E-10

   => Auxiliary Basis Set <=

  Basis Set: (AUG-CC-PVDZ AUX)
    Blend: AUG-CC-PVDZ-JKFIT
    Number of shells: 376
    Number of basis functions: 1116
    Number of Cartesian functions: 1290
    Spherical Harmonics?: true
    Max angular momentum: 3

  Minimum eigenvalue in the overlap matrix is 3.0324283794E-05.
  Reciprocal condition number of the overlap matrix is 2.4867041665E-06.
    Using symmetric orthogonalization.

  ==> Pre-Iterations <==

  SCF Guess: Superposition of Atomic Densities via on-the-fly atomic UHF (no occupation information).

   -------------------------
    Irrep   Nso     Nmo    
   -------------------------
     A        302     302 
   -------------------------
    Total     302     302
   -------------------------

  ==> Iterations <==

                           Total Energy        Delta E     RMS |[F,P]|

   @DF-RHF iter SAD:  -224.72250855792390   -2.24723e+02   0.00000e+00 
   @DF-RHF iter   1:  -224.63556596144574    8.69426e-02   1.50490e-03 DIIS
   @DF-RHF iter   2:  -224.73993304960214   -1.04367e-01   6.88620e-04 DIIS
   @DF-RHF iter   3:  -224.76085080338601   -2.09178e-02   1.48614e-04 DIIS
   @DF-RHF iter   4:  -224.76223500204031   -1.38420e-03   6.05151e-05 DIIS
   @DF-RHF iter   5:  -224.76241324654387   -1.78245e-04   1.19848e-05 DIIS
   @DF-RHF iter   6:  -224.76243017969421   -1.69332e-05   4.96323e-06 DIIS
   @DF-RHF iter   7:  -224.76243412753752   -3.94784e-06   2.18628e-06 DIIS
   @DF-RHF iter   8:  -224.76243488707598   -7.59538e-07   1.01631e-06 DIIS
   @DF-RHF iter   9:  -224.76243505458103   -1.67505e-07   2.83280e-07 DIIS
   @DF-RHF iter  10:  -224.76243506339824   -8.81721e-09   8.55270e-08 DIIS
   @DF-RHF iter  11:  -224.76243506408809   -6.89852e-10   1.99678e-08 DIIS
   @DF-RHF iter  12:  -224.76243506413419   -4.61000e-11   5.80974e-09 DIIS
   @DF-RHF iter  13:  -224.76243506413849   -4.29168e-12   2.83583e-09 DIIS
   @DF-RHF iter  14:  -224.76243506413940   -9.09495e-13   9.79834e-10 DIIS
   @DF-RHF iter  15:  -224.76243506413908    3.12639e-13   4.16538e-10 DIIS
   @DF-RHF iter  16:  -224.76243506413931   -2.27374e-13   1.25808e-10 DIIS
   @DF-RHF iter  17:  -224.76243506413954   -2.27374e-13   4.47601e-11 DIIS
  Energy and wave function converged.


  ==> Post-Iterations <==

    Orbital Energies [Eh]
    ---------------------

    Doubly Occupied:                                                      

       1A    -15.636233     2A    -15.592291     3A    -11.279903  
       4A    -11.237759     5A    -11.209884     6A     -1.387001  
       7A     -1.121894     8A     -1.066928     9A     -0.872759  
      10A     -0.837039    11A     -0.757272    12A     -0.645745  
      13A     -0.620828    14A     -0.609177    15A     -0.583905  
      16A     -0.461413    17A     -0.370715    18A     -0.346055  

    Virtual:                                                              

      19A      0.021724    20A      0.030763    21A      0.039112  
      22A      0.042358    23A      0.043213    24A      0.049159  
      25A      0.063514    26A      0.064991    27A      0.082994  
      28A      0.089857    29A      0.098055    30A      0.101002  
      31A      0.104028    32A      0.117186    33A      0.117419  
      34A      0.124832    35A      0.126269    36A      0.127259  
      37A      0.132425    38A      0.133086    39A      0.133130  
      40A      0.138400    41A      0.141495    42A      0.156888  
      43A      0.157601    44A      0.164580    45A      0.165052  
      46A      0.171081    47A      0.178293    48A      0.178417  
      49A      0.194582    50A      0.196045    51A      0.200642  
      52A      0.204806    53A      0.206166    54A      0.222062  
      55A      0.224228    56A      0.227352    57A      0.234677  
      58A      0.240240    59A      0.243627    60A      0.244966  
      61A      0.263201    62A      0.270150    63A      0.271139  
      64A      0.279084    65A      0.301024    66A      0.321037  
      67A      0.325138    68A      0.339147    69A      0.352355  
      70A      0.355364    71A      0.365643    72A      0.371962  
      73A      0.374910    74A      0.382767    75A      0.396064  
      76A      0.402744    77A      0.415005    78A      0.426564  
      79A      0.431123    80A      0.432131    81A      0.440204  
      82A      0.441360    83A      0.443379    84A      0.453414  
      85A      0.455100    86A      0.456514    87A      0.459816  
      88A      0.460993    89A      0.478656    90A      0.498544  
      91A      0.508692    92A      0.508822    93A      0.518541  
      94A      0.521953    95A      0.532235    96A      0.537130  
      97A      0.541571    98A      0.558409    99A      0.567969  
     100A      0.570910   101A      0.574429   102A      0.586322  
     103A      0.590547   104A      0.594239   105A      0.602432  
     106A      0.612458   107A      0.620356   108A      0.620975  
     109A      0.632614   110A      0.646112   111A      0.655305  
     112A      0.676169   113A      0.689927   114A      0.698039  
     115A      0.700384   116A      0.706937   117A      0.718524  
     118A      0.721649   119A      0.725121   120A      0.734732  
     121A      0.744431   122A      0.747717   123A      0.758644  
     124A      0.773300   125A      0.781476   126A      0.788810  
     127A      0.797214   128A      0.813539   129A      0.820024  
     130A      0.828513   131A      0.838239   132A      0.848382  
     133A      0.851009   134A      0.854199   135A      0.870106  
     136A      0.880138   137A      0.881397   138A      0.888762  
     139A      0.894758   140A      0.906950   141A      0.915285  
     142A      0.924803   143A      0.942600   144A      0.951216  
     145A      0.978204   146A      0.984853   147A      0.996308  
     148A      1.011170   149A      1.023298   150A      1.029407  
     151A      1.046624   152A      1.050810   153A      1.066503  
     154A      1.070227   155A      1.080122   156A      1.100853  
     157A      1.107344   158A      1.128099   159A      1.134154  
     160A      1.150240   161A      1.157974   162A      1.165489  
     163A      1.175167   164A      1.184153   165A      1.220538  
     166A      1.220927   167A      1.236229   168A      1.267193  
     169A      1.269573   170A      1.292952   171A      1.303390  
     172A      1.311431   173A      1.314350   174A      1.339888  
     175A      1.365802   176A      1.381047   177A      1.401040  
     178A      1.434228   179A      1.443940   180A      1.474706  
     181A      1.492451   182A      1.506252   183A      1.512021  
     184A      1.526136   185A      1.560976   186A      1.590889  
     187A      1.608679   188A      1.637435   189A      1.669494  
     190A      1.675955   191A      1.688141   192A      1.703636  
     193A      1.723957   194A      1.749250   195A      1.764367  
     196A      1.805026   197A      1.875589   198A      1.932406  
     199A      1.943562   200A      1.988139   201A      2.021454  
     202A      2.040248   203A      2.057662   204A      2.088810  
     205A      2.108241   206A      2.134012   207A      2.144708  
     208A      2.167249   209A      2.189999   210A      2.200828  
     211A      2.215828   212A      2.230454   213A      2.233036  
     214A      2.261044   215A      2.275832   216A      2.276938  
     217A      2.288443   218A      2.307637   219A      2.334903  
     220A      2.360646   221A      2.379769   222A      2.389121  
     223A      2.393724   224A      2.393759   225A      2.435199  
     226A      2.443064   227A      2.464942   228A      2.477506  
     229A      2.499061   230A      2.512877   231A      2.531785  
     232A      2.547994   233A      2.570195   234A      2.584820  
     235A      2.630541   236A      2.642959   237A      2.666733  
     238A      2.702235   239A      2.718085   240A      2.733013  
     241A      2.826807   242A      2.827114   243A      2.834708  
     244A      2.869043   245A      2.889226   246A      2.901543  
     247A      2.918563   248A      2.944363   249A      2.999195  
     250A      3.027268   251A      3.055311   252A      3.089056  
     253A      3.092441   254A      3.122704   255A      3.139222  
     256A      3.181191   257A      3.189011   258A      3.222030  
     259A      3.253373   260A      3.288435   261A      3.297913  
     262A      3.355018   263A      3.380220   264A      3.394848  
     265A      3.422741   266A      3.447515   267A      3.486390  
     268A      3.496691   269A      3.520764   270A      3.632820  
     271A      3.666186   272A      3.686295   273A      3.734840  
     274A      3.769338   275A      3.850420   276A      3.889250  
     277A      3.963607   278A      4.034781   279A      4.094005  
     280A      4.209313   281A      4.243322   282A      4.447672  
     283A      4.463032   284A      4.657688   285A      4.707293  
     286A      4.749146   287A      4.810027   288A      4.994101  
     289A      5.076061   290A      5.240685   291A      5.530491  
     292A      5.668225   293A      5.826089   294A      6.105953  
     295A      6.317507   296A      6.707607   297A      6.967132  
     298A     18.110376   299A     18.647076   300A     19.372785  
     301A     25.244835   302A     25.704231  

    Final Occupation by Irrep:
              A 
    DOCC [    18 ]

  @DF-RHF Final Energy:  -224.76243506413954

   => Energetics <=

    Nuclear Repulsion Energy =            166.6286028947134525
    One-Electron Energy =                -633.5084735846746753
    Two-Electron Energy =                 242.1174356258216562
    Total Energy =                       -224.7624350641395381

Computation Completed


Properties will be evaluated at   0.000000,   0.000000,   0.000000 [a0]

Properties computed using the SCF density matrix

  Nuclear Dipole Moment: [e a0]
     X:  -394.4144      Y:  -740.2636      Z:   704.4084

  Electronic Dipole Moment: [e a0]
     X:   394.7053      Y:   740.8276      Z:  -705.1115

  Dipole Moment: [e a0]
     X:     0.2909      Y:     0.5640      Z:    -0.7031     Total:     0.9472

  Dipole Moment: [D]
     X:     0.7394      Y:     1.4336      Z:    -1.7871     Total:     2.4074


*** tstop() called on ds1 at Mon Oct  4 13:44:24 2021
Module time:
	user time   =      16.58 seconds =       0.28 minutes
	system time =       0.34 seconds =       0.01 minutes
	total time  =          4 seconds =       0.07 minutes
Total time:
	user time   =      56.66 seconds =       0.94 minutes
	system time =       1.30 seconds =       0.02 minutes
	total time  =         12 seconds =       0.20 minutes
  Constructing Basis Sets for SAPT...

   => Loading Basis Set <=

    Name: (AUG-CC-PVDZ AUX)
    Role: RIFIT
    Keyword: DF_BASIS_SAPT
    atoms 1-2, 10-11 entry N          line   158 file /theoryfs2/ds/csargent/miniconda3/envs/cle/share/psi4/basis/aug-cc-pvdz-ri.gbs 
    atoms 3-6, 12-15 entry H          line    30 file /theoryfs2/ds/csargent/miniconda3/envs/cle/share/psi4/basis/aug-cc-pvdz-ri.gbs 
    atoms 7-9, 16-18 entry C          line   112 file /theoryfs2/ds/csargent/miniconda3/envs/cle/share/psi4/basis/aug-cc-pvdz-ri.gbs 


  //>>>>>>>>>>>>>>>>>>>>>>>>>>>>>>>>>>>//
  //               SAPT0               //
  //<<<<<<<<<<<<<<<<<<<<<<<<<<<<<<<<<<<//


*** tstart() called on ds1
*** at Mon Oct  4 13:44:24 2021

        SAPT0  
    Ed Hohenstein
     6 June 2009

      Orbital Information
  --------------------------
    NSO        =       302
    NMO        =       302
    NRI        =       904
    NOCC A     =        18
    NOCC B     =        18
    FOCC A     =         5
    FOCC B     =         5
    NVIR A     =       284
    NVIR B     =       284

    Elst10,r            =     0.000003394523 [Eh]
    Exch10              =     0.000000000003 [Eh]
    Exch10 (S^2)        =     0.000000000003 [Eh]

    Iter     Energy [mEh]          dE [mEh]         Residual      Time [s]
       1      -0.00007868       0.000078676       0.086862123             0
       2      -0.00007184      -0.000006831       0.022196440             1
       3      -0.00007634       0.000004497       0.011161562             1
       4      -0.00007862       0.000002281       0.001789968             1
       5      -0.00007843      -0.000000197       0.000782563             1
       6      -0.00007838      -0.000000042       0.000253743             1
       7      -0.00007839       0.000000009       0.000120493             1
       8      -0.00007840       0.000000006       0.000051334             1
       9      -0.00007840      -0.000000001       0.000016166             1
      10      -0.00007840      -0.000000001       0.000004079             2
      11      -0.00007840       0.000000000       0.000001366             2
      12      -0.00007840       0.000000000       0.000000539             2

    CHF Iterations converged


    Iter     Energy [mEh]          dE [mEh]         Residual      Time [s]
       1      -0.00002237       0.000022373       0.049084512             0
       2      -0.00002056      -0.000001809       0.012372008             0
       3      -0.00002214       0.000001576       0.005314874             0
       4      -0.00002261       0.000000466       0.001242281             0
       5      -0.00002257      -0.000000039       0.000572716             1
       6      -0.00002254      -0.000000028       0.000213681             1
       7      -0.00002254       0.000000001       0.000101183             1
       8      -0.00002254       0.000000003       0.000042964             1
       9      -0.00002254       0.000000000       0.000012876             1
      10      -0.00002254      -0.000000001       0.000003463             1
      11      -0.00002254       0.000000000       0.000001185             1
      12      -0.00002254       0.000000000       0.000000255             1

    CHF Iterations converged

    Ind20,r (A<-B)      =    -0.000000078397 [Eh]
    Ind20,r (B<-A)      =    -0.000000022544 [Eh]
    Ind20,r             =    -0.000000100941 [Eh]
    Exch-Ind20,r (A<-B) =     0.000000000003 [Eh]
    Exch-Ind20,r (B<-A) =     0.000000000001 [Eh]
    Exch-Ind20,r        =     0.000000000005 [Eh]
    Disp20              =    -0.000001536425 [Eh]
    Disp20 (SS)         =    -0.000000768213 [Eh]
    Disp20 (OS)         =    -0.000000768213 [Eh]
    Exch-Disp20         =     0.000000000000 [Eh]
    Exch-Disp20 (SS)    =     0.000000000000 [Eh]
    Exch-Disp20 (OS)    =     0.000000000000 [Eh]

    SAPT Results 
  --------------------------------------------------------------------------------------------------------
    Electrostatics                  0.00339452 [mEh]       0.00213010 [kcal/mol]       0.00891232 [kJ/mol]
      Elst10,r                      0.00339452 [mEh]       0.00213010 [kcal/mol]       0.00891232 [kJ/mol]

    Exchange                        0.00000000 [mEh]       0.00000000 [kcal/mol]       0.00000001 [kJ/mol]
      Exch10                        0.00000000 [mEh]       0.00000000 [kcal/mol]       0.00000001 [kJ/mol]
      Exch10(S^2)                   0.00000000 [mEh]       0.00000000 [kcal/mol]       0.00000001 [kJ/mol]

    Induction                      -0.00001272 [mEh]      -0.00000798 [kcal/mol]      -0.00003340 [kJ/mol]
      Ind20,r                      -0.00010094 [mEh]      -0.00006334 [kcal/mol]      -0.00026502 [kJ/mol]
      Exch-Ind20,r                  0.00000000 [mEh]       0.00000000 [kcal/mol]       0.00000001 [kJ/mol]
      delta HF,r (2)                0.00008822 [mEh]       0.00005536 [kcal/mol]       0.00023161 [kJ/mol]

    Dispersion                     -0.00153642 [mEh]      -0.00096412 [kcal/mol]      -0.00403388 [kJ/mol]
      Disp20                       -0.00153643 [mEh]      -0.00096412 [kcal/mol]      -0.00403388 [kJ/mol]
      Exch-Disp20                   0.00000000 [mEh]       0.00000000 [kcal/mol]       0.00000000 [kJ/mol]
      Disp20 (SS)                  -0.00076821 [mEh]      -0.00048206 [kcal/mol]      -0.00201694 [kJ/mol]
      Disp20 (OS)                  -0.00076821 [mEh]      -0.00048206 [kcal/mol]      -0.00201694 [kJ/mol]
      Exch-Disp20 (SS)              0.00000000 [mEh]       0.00000000 [kcal/mol]       0.00000000 [kJ/mol]
      Exch-Disp20 (OS)              0.00000000 [mEh]       0.00000000 [kcal/mol]       0.00000000 [kJ/mol]

  Total HF                          0.00338181 [mEh]       0.00212212 [kcal/mol]       0.00887893 [kJ/mol]
  Total SAPT0                       0.00184538 [mEh]       0.00115799 [kcal/mol]       0.00484505 [kJ/mol]

  Special recipe for scaled SAPT0 (see Manual):
    Electrostatics sSAPT0           0.00339452 [mEh]       0.00213010 [kcal/mol]       0.00891232 [kJ/mol]
    Exchange sSAPT0                 0.00000000 [mEh]       0.00000000 [kcal/mol]       0.00000001 [kJ/mol]
    Induction sSAPT0               -0.00001272 [mEh]      -0.00000798 [kcal/mol]      -0.00003340 [kJ/mol]
    Dispersion sSAPT0              -0.00153642 [mEh]      -0.00096412 [kcal/mol]      -0.00403388 [kJ/mol]
  Total sSAPT0                      0.00184538 [mEh]       0.00115799 [kcal/mol]       0.00484505 [kJ/mol]
  --------------------------------------------------------------------------------------------------------

*** tstop() called on ds1 at Mon Oct  4 13:44:34 2021
Module time:
	user time   =      45.55 seconds =       0.76 minutes
	system time =       4.09 seconds =       0.07 minutes
	total time  =         10 seconds =       0.17 minutes
Total time:
	user time   =     103.21 seconds =       1.72 minutes
	system time =       5.42 seconds =       0.09 minutes
	total time  =         22 seconds =       0.37 minutes


Warning! sapt0 does not have an associated derived wavefunction.The returned wavefunction is the dimer SCF wavefunction.


    Psi4 stopped on: Monday, 04 October 2021 01:44PM
    Psi4 wall time for execution: 0:00:22.06

*** Psi4 exiting successfully. Buy a developer a beer!
